# Probe 0 (1 0 0.005)
# Probe 1 (1 0.01 0.005)
# Probe 2 (1 0.02 0.005)
# Probe 3 (1 0.03 0.005)
# Probe 4 (1 0.04 0.005)
# Probe 5 (1 0.05 0.005)
# Probe 6 (1 0.06 0.005)
# Probe 7 (1 0.07 0.005)
# Probe 8 (1 0.08 0.005)
# Probe 9 (1 0.09 0.005)
# Probe 10 (1 0.1 0.005)
# Time        0             1             2             3             4             5             6             7             8             9             10           
0             (0 0 0)       (0 0 0)       (0 0 0)       (0 0 0)       (0 0 0)       (0 0 0)       (0 0 0)       (0 0 0)       (0 0 0)       (0 0 0)       (0 0 0)      
0.0015        (0.976553 1.78214e-06 0) (1.00208 3.49054e-06 0) (1.00208 2.76483e-06 0) (1.00208 2.00862e-06 0) (1.00208 1.11144e-06 0) (1.00208 8.66225e-08 0) (1.00208 -1.05969e-06 0) (1.00208 -2.28544e-06 0) (1.00208 -3.3296e-06 0) (1.00208 -4.34223e-06 0) (0.976542 -2.42688e-06 0)
0.003         (0.95158 -6.06979e-08 0) (1.00341 6.39738e-07 0) (1.00341 6.78423e-07 0) (1.00341 4.49503e-07 0) (1.00341 2.96995e-07 0) (1.00341 2.33612e-07 0) (1.00341 1.31464e-07 0) (1.00342 7.0172e-08 0) (1.00342 -5.22772e-08 0) (1.00342 3.72148e-08 0) (0.951579 1.10157e-06 0)
0.0045        (0.928978 5.24365e-07 0) (1.00517 1.37815e-06 0) (1.0052 1.20832e-06 0) (1.0052 7.86832e-07 0) (1.0052 3.89194e-07 0) (1.0052 3.5484e-08 0) (1.0052 -2.67344e-07 0) (1.0052 -5.86242e-07 0) (1.0052 -9.28966e-07 0) (1.0052 -1.08764e-06 0) (0.928974 8.00257e-07 0)
0.006         (0.907037 7.2829e-07 0) (1.00679 1.48671e-06 0) (1.00684 1.24317e-06 0) (1.00684 7.88416e-07 0) (1.00684 3.64041e-07 0) (1.00684 3.86784e-08 0) (1.00684 -2.94695e-07 0) (1.00684 -6.05361e-07 0) (1.00684 -9.42767e-07 0) (1.00684 -1.21872e-06 0) (0.907033 4.51389e-07 0)
0.0075        (0.885909 8.65251e-07 0) (1.00835 1.55745e-06 0) (1.00845 1.25738e-06 0) (1.00845 7.89685e-07 0) (1.00845 3.61626e-07 0) (1.00845 4.17289e-08 0) (1.00845 -3.04453e-07 0) (1.00845 -6.22802e-07 0) (1.00845 -9.60861e-07 0) (1.00845 -1.33721e-06 0) (0.885905 4.33913e-08 0)
0.009         (0.865574 9.40719e-07 0) (1.00987 1.58761e-06 0) (1.01003 1.25189e-06 0) (1.01003 7.82911e-07 0) (1.01003 3.61276e-07 0) (1.01003 3.82987e-08 0) (1.01003 -3.04651e-07 0) (1.01003 -6.27423e-07 0) (1.01003 -9.65066e-07 0) (1.01002 -1.40246e-06 0) (0.86557 -2.61341e-07 0)
0.0105        (0.846003 9.79419e-07 0) (1.01132 1.59763e-06 0) (1.01157 1.23872e-06 0) (1.01157 7.72214e-07 0) (1.01157 3.58975e-07 0) (1.01157 3.28702e-08 0) (1.01157 -3.01594e-07 0) (1.01157 -6.24679e-07 0) (1.01157 -9.60831e-07 0) (1.01156 -1.43247e-06 0) (0.845999 -4.65546e-07 0)
0.012         (0.827168 9.93531e-07 0) (1.01272 1.5954e-06 0) (1.01307 1.22229e-06 0) (1.01307 7.59656e-07 0) (1.01307 3.54343e-07 0) (1.01307 2.72463e-08 0) (1.01307 -2.99279e-07 0) (1.01307 -6.20732e-07 0) (1.01307 -9.55108e-07 0) (1.01306 -1.44357e-06 0) (0.827164 -5.94621e-07 0)
0.0135        (0.809038 9.91517e-07 0) (1.01405 1.58564e-06 0) (1.01455 1.20451e-06 0) (1.01455 7.46371e-07 0) (1.01455 3.4828e-07 0) (1.01455 2.19054e-08 0) (1.01455 -2.97966e-07 0) (1.01455 -6.16806e-07 0) (1.01455 -9.49349e-07 0) (1.01453 -1.44439e-06 0) (0.809034 -6.73145e-07 0)
0.015         (0.791583 9.7892e-07 0) (1.01533 1.57054e-06 0) (1.01599 1.18519e-06 0) (1.01599 7.31811e-07 0) (1.01599 3.40644e-07 0) (1.01599 1.65823e-08 0) (1.01599 -2.96937e-07 0) (1.01599 -6.11678e-07 0) (1.01599 -9.41699e-07 0) (1.01596 -1.43741e-06 0) (0.791579 -7.17953e-07 0)
0.0165        (0.774775 9.59874e-07 0) (1.01654 1.55337e-06 0) (1.0174 1.16629e-06 0) (1.0174 7.17734e-07 0) (1.0174 3.32871e-07 0) (1.0174 1.14471e-08 0) (1.0174 -2.9691e-07 0) (1.0174 -6.07516e-07 0) (1.0174 -9.35302e-07 0) (1.01736 -1.42855e-06 0) (0.774771 -7.41962e-07 0)
0.018         (0.758587 9.35876e-07 0) (1.01769 1.53361e-06 0) (1.01878 1.14646e-06 0) (1.01878 7.02889e-07 0) (1.01878 3.24246e-07 0) (1.01878 6.16742e-09 0) (1.01878 -2.97125e-07 0) (1.01878 -6.0268e-07 0) (1.01878 -9.27692e-07 0) (1.01873 -1.41605e-06 0) (0.758583 -7.50208e-07 0)
0.0195        (0.742992 9.08872e-07 0) (1.01878 1.51264e-06 0) (1.02013 1.12648e-06 0) (1.02013 6.87945e-07 0) (1.02013 3.15345e-07 0) (1.02013 8.99789e-10 0) (1.02013 -2.97644e-07 0) (1.02013 -5.97758e-07 0) (1.02013 -9.19754e-07 0) (1.02007 -1.40181e-06 0) (0.742988 -7.48119e-07 0)
0.021         (0.727966 8.79933e-07 0) (1.0198 1.49088e-06 0) (1.02145 1.10639e-06 0) (1.02145 6.72959e-07 0) (1.02145 3.06276e-07 0) (1.02145 -4.36548e-09 0) (1.02145 -2.98395e-07 0) (1.02145 -5.92832e-07 0) (1.02145 -9.11544e-07 0) (1.02138 -1.38632e-06 0) (0.727962 -7.38867e-07 0)
0.0225        (0.713485 8.49821e-07 0) (1.02077 1.46855e-06 0) (1.02275 1.08619e-06 0) (1.02275 6.57938e-07 0) (1.02275 2.97094e-07 0) (1.02275 -9.6107e-09 0) (1.02275 -2.99247e-07 0) (1.02275 -5.87887e-07 0) (1.02275 -9.02987e-07 0) (1.02265 -1.36978e-06 0) (0.713481 -7.24582e-07 0)
0.024         (0.699526 8.19078e-07 0) (1.02167 1.44581e-06 0) (1.02402 1.06588e-06 0) (1.02402 6.42887e-07 0) (1.02402 2.87835e-07 0) (1.02402 -1.482e-08 0) (1.02402 -3.00106e-07 0) (1.02402 -5.82945e-07 0) (1.02402 -8.94058e-07 0) (1.0239 -1.35235e-06 0) (0.699522 -7.06758e-07 0)
0.0255        (0.686067 7.88036e-07 0) (1.02251 1.42265e-06 0) (1.02527 1.04544e-06 0) (1.02527 6.278e-07 0) (1.02527 2.78526e-07 0) (1.02527 -1.99744e-08 0) (1.02527 -3.00869e-07 0) (1.02527 -5.77997e-07 0) (1.02527 -8.84709e-07 0) (1.02511 -1.33405e-06 0) (0.686064 -6.86358e-07 0)
0.027         (0.673089 7.54782e-07 0) (1.02329 1.39637e-06 0) (1.02649 1.02305e-06 0) (1.02649 6.11504e-07 0) (1.02649 2.68514e-07 0) (1.02649 -2.52537e-08 0) (1.02649 -3.01237e-07 0) (1.02649 -5.72381e-07 0) (1.02649 -8.73771e-07 0) (1.0263 -1.31251e-06 0) (0.673085 -6.61179e-07 0)
0.0285        (0.66057 7.2142e-07 0) (1.024 1.36907e-06 0) (1.02769 1.00008e-06 0) (1.02769 5.9498e-07 0) (1.02769 2.58483e-07 0) (1.02769 -3.02967e-08 0) (1.02769 -3.01073e-07 0) (1.02769 -5.66303e-07 0) (1.02769 -8.61786e-07 0) (1.02746 -1.28989e-06 0) (0.660567 -6.35138e-07 0)
0.03          (0.648492 6.88768e-07 0) (1.02466 1.34155e-06 0) (1.02887 9.76956e-07 0) (1.02887 5.78437e-07 0) (1.02887 2.48428e-07 0) (1.02887 -3.52824e-08 0) (1.02887 -3.00773e-07 0) (1.02887 -5.60361e-07 0) (1.02887 -8.49516e-07 0) (1.02859 -1.26724e-06 0) (0.648489 -6.09604e-07 0)
0.0315        (0.636837 6.57013e-07 0) (1.02526 1.31415e-06 0) (1.03003 9.54032e-07 0) (1.03003 5.62188e-07 0) (1.03003 2.38615e-07 0) (1.03003 -4.00469e-08 0) (1.03003 -3.00194e-07 0) (1.03003 -5.54493e-07 0) (1.03003 -8.37073e-07 0) (1.0297 -1.24447e-06 0) (0.636834 -5.84341e-07 0)
0.033         (0.625587 6.26206e-07 0) (1.0258 1.28695e-06 0) (1.03116 9.31352e-07 0) (1.03117 5.46224e-07 0) (1.03117 2.28999e-07 0) (1.03117 -4.46029e-08 0) (1.03117 -2.99397e-07 0) (1.03117 -5.48713e-07 0) (1.03117 -8.24536e-07 0) (1.03077 -1.22143e-06 0) (0.625584 -5.59026e-07 0)
0.0345        (0.614726 5.96476e-07 0) (1.02628 1.26e-06 0) (1.03228 9.08923e-07 0) (1.03228 5.30511e-07 0) (1.03228 2.19508e-07 0) (1.03228 -4.90766e-08 0) (1.03228 -2.98537e-07 0) (1.03228 -5.43143e-07 0) (1.03228 -8.12099e-07 0) (1.03182 -1.19835e-06 0) (0.614723 -5.33976e-07 0)
0.036         (0.604238 5.67914e-07 0) (1.0267 1.23332e-06 0) (1.03338 8.86768e-07 0) (1.03338 5.15092e-07 0) (1.03338 2.10194e-07 0) (1.03338 -5.33199e-08 0) (1.03338 -2.9756e-07 0) (1.03338 -5.37661e-07 0) (1.03338 -7.99728e-07 0) (1.03285 -1.17536e-06 0) (0.604235 -5.09539e-07 0)
0.0375        (0.594108 5.42708e-07 0) (1.02706 1.2097e-06 0) (1.03446 8.66783e-07 0) (1.03446 5.01231e-07 0) (1.03446 2.01795e-07 0) (1.03446 -5.71336e-08 0) (1.03446 -2.96762e-07 0) (1.03446 -5.33002e-07 0) (1.03446 -7.88783e-07 0) (1.03385 -1.15508e-06 0) (0.594105 -4.88591e-07 0)
0.039         (0.584321 5.19209e-07 0) (1.02737 1.18696e-06 0) (1.03552 8.47407e-07 0) (1.03552 4.87792e-07 0) (1.03552 1.93559e-07 0) (1.03552 -6.09112e-08 0) (1.03552 -2.96158e-07 0) (1.03552 -5.28718e-07 0) (1.03552 -7.7845e-07 0) (1.03482 -1.13564e-06 0) (0.584318 -4.69187e-07 0)
0.0405        (0.574863 4.96749e-07 0) (1.02763 1.16432e-06 0) (1.03656 8.28268e-07 0) (1.03656 4.74641e-07 0) (1.03656 1.85546e-07 0) (1.03656 -6.44663e-08 0) (1.03656 -2.95434e-07 0) (1.03656 -5.24345e-07 0) (1.03656 -7.68262e-07 0) (1.03577 -1.11619e-06 0) (0.574861 -4.50342e-07 0)
0.042         (0.565722 4.73662e-07 0) (1.02783 1.13944e-06 0) (1.03758 8.07758e-07 0) (1.03759 4.60705e-07 0) (1.03759 1.77159e-07 0) (1.03759 -6.79823e-08 0) (1.03759 -2.9434e-07 0) (1.03759 -5.19161e-07 0) (1.03759 -7.57092e-07 0) (1.03669 -1.09478e-06 0) (0.56572 -4.30299e-07 0)
0.0435        (0.556885 4.51211e-07 0) (1.02797 1.11407e-06 0) (1.03859 7.87098e-07 0) (1.0386 4.4681e-07 0) (1.0386 1.68839e-07 0) (1.0386 -7.14477e-08 0) (1.0386 -2.93306e-07 0) (1.0386 -5.1404e-07 0) (1.0386 -7.46288e-07 0) (1.03759 -1.07359e-06 0) (0.556883 -4.11055e-07 0)
0.045         (0.548339 4.29526e-07 0) (1.02807 1.08828e-06 0) (1.03959 7.66312e-07 0) (1.03959 4.32992e-07 0) (1.03959 1.6076e-07 0) (1.03959 -7.44789e-08 0) (1.03959 -2.91648e-07 0) (1.03959 -5.07985e-07 0) (1.03959 -7.34731e-07 0) (1.03846 -1.05164e-06 0) (0.548337 -3.92218e-07 0)
0.0465        (0.540074 4.08922e-07 0) (1.02811 1.06265e-06 0) (1.04057 7.45796e-07 0) (1.04057 4.19469e-07 0) (1.04057 1.5294e-07 0) (1.04057 -7.7306e-08 0) (1.04057 -2.89866e-07 0) (1.04057 -5.01781e-07 0) (1.04057 -7.23409e-07 0) (1.03931 -1.03e-06 0) (0.540071 -3.74392e-07 0)
0.048         (0.532077 3.89354e-07 0) (1.02811 1.03718e-06 0) (1.04153 7.25538e-07 0) (1.04154 4.06213e-07 0) (1.04154 1.45342e-07 0) (1.04154 -7.99714e-08 0) (1.04154 -2.8799e-07 0) (1.04154 -4.9547e-07 0) (1.04154 -7.12339e-07 0) (1.04013 -1.00867e-06 0) (0.532075 -3.5748e-07 0)
0.0495        (0.524338 3.70779e-07 0) (1.02805 1.01188e-06 0) (1.04248 7.05558e-07 0) (1.04249 3.93232e-07 0) (1.04249 1.37985e-07 0) (1.04249 -8.24538e-08 0) (1.04249 -2.86001e-07 0) (1.04249 -4.89048e-07 0) (1.04249 -7.01475e-07 0) (1.04093 -9.87609e-07 0) (0.524336 -3.41381e-07 0)
0.051         (0.516847 3.53837e-07 0) (1.02795 9.87559e-07 0) (1.04342 6.86253e-07 0) (1.04343 3.8065e-07 0) (1.04343 1.30814e-07 0) (1.04343 -8.49204e-08 0) (1.04343 -2.84122e-07 0) (1.04343 -4.82794e-07 0) (1.04343 -6.91107e-07 0) (1.04171 -9.67468e-07 0) (0.516845 -3.26787e-07 0)
0.0525        (0.509595 3.38014e-07 0) (1.0278 9.63801e-07 0) (1.04434 6.67633e-07 0) (1.04435 3.68726e-07 0) (1.04435 1.24204e-07 0) (1.04435 -8.69874e-08 0) (1.04435 -2.82049e-07 0) (1.04435 -4.76563e-07 0) (1.04435 -6.81127e-07 0) (1.04247 -9.48035e-07 0) (0.509593 -3.1322e-07 0)
0.054         (0.502572 3.23017e-07 0) (1.02761 9.40204e-07 0) (1.04525 6.49292e-07 0) (1.04526 3.57061e-07 0) (1.04526 1.17822e-07 0) (1.04526 -8.88733e-08 0) (1.04526 -2.79849e-07 0) (1.04526 -4.70257e-07 0) (1.04526 -6.71191e-07 0) (1.0432 -9.28852e-07 0) (0.50257 -3.00272e-07 0)
0.0555        (0.495769 3.08868e-07 0) (1.02737 9.16819e-07 0) (1.04614 6.31029e-07 0) (1.04616 3.45259e-07 0) (1.04616 1.11094e-07 0) (1.04616 -9.13047e-08 0) (1.04616 -2.78383e-07 0) (1.04616 -4.64856e-07 0) (1.04616 -6.62191e-07 0) (1.04391 -9.10776e-07 0) (0.495767 -2.88387e-07 0)
0.057         (0.489178 2.95333e-07 0) (1.02709 8.93519e-07 0) (1.04703 6.1322e-07 0) (1.04705 3.34066e-07 0) (1.04705 1.05108e-07 0) (1.04705 -9.28835e-08 0) (1.04705 -2.75969e-07 0) (1.04705 -4.58463e-07 0) (1.04705 -6.5221e-07 0) (1.04459 -8.92142e-07 0) (0.489176 -2.76572e-07 0)
0.0585        (0.48279 2.82489e-07 0) (1.02676 8.70416e-07 0) (1.0479 5.95713e-07 0) (1.04792 3.23131e-07 0) (1.04792 9.93357e-08 0) (1.04792 -9.4291e-08 0) (1.04792 -2.73432e-07 0) (1.04792 -4.52018e-07 0) (1.04792 -6.42142e-07 0) (1.04525 -8.73813e-07 0) (0.482788 -2.65314e-07 0)
0.06          (0.476597 2.70283e-07 0) (1.0264 8.47475e-07 0) (1.04876 5.78466e-07 0) (1.04879 3.12417e-07 0) (1.04879 9.37562e-08 0) (1.04879 -9.55349e-08 0) (1.04879 -2.70771e-07 0) (1.04879 -4.45506e-07 0) (1.04878 -6.31927e-07 0) (1.04589 -8.55744e-07 0) (0.476596 -2.54578e-07 0)
0.0615        (0.470593 2.58673e-07 0) (1.02599 8.2471e-07 0) (1.04961 5.61493e-07 0) (1.04964 3.01936e-07 0) (1.04964 8.83621e-08 0) (1.04964 -9.66141e-08 0) (1.04964 -2.6795e-07 0) (1.04964 -4.3888e-07 0) (1.04964 -6.21513e-07 0) (1.04651 -8.37888e-07 0) (0.470592 -2.44327e-07 0)
0.063         (0.46477 2.47587e-07 0) (1.02555 8.02023e-07 0) (1.05045 5.44617e-07 0) (1.05048 2.91466e-07 0) (1.05048 8.2928e-08 0) (1.05048 -9.77373e-08 0) (1.05048 -2.65148e-07 0) (1.05048 -4.32248e-07 0) (1.05048 -6.10932e-07 0) (1.04711 -8.20189e-07 0) (0.464768 -2.3452e-07 0)
0.0645        (0.459121 2.37041e-07 0) (1.02507 7.79616e-07 0) (1.05127 5.28168e-07 0) (1.05131 2.81422e-07 0) (1.05131 7.79153e-08 0) (1.05131 -9.84543e-08 0) (1.05131 -2.61977e-07 0) (1.05131 -4.25317e-07 0) (1.05131 -6.00048e-07 0) (1.04769 -8.02611e-07 0) (0.459119 -2.25127e-07 0)
0.066         (0.453639 2.27431e-07 0) (1.02455 7.58002e-07 0) (1.05209 5.12246e-07 0) (1.05213 2.71636e-07 0) (1.05213 7.30485e-08 0) (1.05213 -9.90328e-08 0) (1.05213 -2.586e-07 0) (1.05213 -4.18085e-07 0) (1.05213 -5.8878e-07 0) (1.04824 -7.85132e-07 0) (0.453638 -2.1626e-07 0)
0.0675        (0.448319 2.18602e-07 0) (1.024 7.37197e-07 0) (1.0529 4.97094e-07 0) (1.05294 2.62481e-07 0) (1.05294 6.86434e-08 0) (1.05294 -9.93806e-08 0) (1.05295 -2.55288e-07 0) (1.05295 -4.1124e-07 0) (1.05294 -5.78128e-07 0) (1.04877 -7.68703e-07 0) (0.448318 -2.08395e-07 0)
0.069         (0.443154 2.10225e-07 0) (1.02341 7.16637e-07 0) (1.05369 4.82171e-07 0) (1.05375 2.53474e-07 0) (1.05375 6.43717e-08 0) (1.05375 -9.95938e-08 0) (1.05375 -2.51834e-07 0) (1.05375 -4.04233e-07 0) (1.05374 -5.67294e-07 0) (1.04928 -7.52268e-07 0) (0.443153 -2.0087e-07 0)
0.0705        (0.438138 2.02267e-07 0) (1.02278 6.96345e-07 0) (1.05448 4.67502e-07 0) (1.05454 2.44654e-07 0) (1.05454 6.0276e-08 0) (1.05454 -9.96309e-08 0) (1.05454 -2.48209e-07 0) (1.05454 -3.97057e-07 0) (1.05454 -5.56318e-07 0) (1.04977 -7.35833e-07 0) (0.438137 -1.93681e-07 0)
0.072         (0.433267 1.94689e-07 0) (1.02213 6.76283e-07 0) (1.05526 4.53027e-07 0) (1.05532 2.35969e-07 0) (1.05532 5.63199e-08 0) (1.05532 -9.95252e-08 0) (1.05533 -2.44437e-07 0) (1.05533 -3.89717e-07 0) (1.05532 -5.45206e-07 0) (1.05025 -7.19347e-07 0) (0.433265 -1.8679e-07 0)
0.0735        (0.428534 1.87472e-07 0) (1.02144 6.56449e-07 0) (1.05603 4.38735e-07 0) (1.0561 2.27409e-07 0) (1.0561 5.24944e-08 0) (1.0561 -9.9281e-08 0) (1.0561 -2.40519e-07 0) (1.0561 -3.82221e-07 0) (1.05609 -5.33976e-07 0) (1.0507 -7.02802e-07 0) (0.428532 -1.80188e-07 0)
0.075         (0.423934 1.80601e-07 0) (1.02072 6.36834e-07 0) (1.05679 4.24611e-07 0) (1.05687 2.18964e-07 0) (1.05687 4.87887e-08 0) (1.05687 -9.89079e-08 0) (1.05687 -2.36466e-07 0) (1.05687 -3.74581e-07 0) (1.05686 -5.22649e-07 0) (1.05113 -6.86203e-07 0) (0.423933 -1.73865e-07 0)
0.0765        (0.419463 1.74059e-07 0) (1.01998 6.17413e-07 0) (1.05754 4.10632e-07 0) (1.05763 2.10624e-07 0) (1.05763 4.51966e-08 0) (1.05763 -9.8407e-08 0) (1.05763 -2.32277e-07 0) (1.05763 -3.66802e-07 0) (1.05762 -5.11228e-07 0) (1.05154 -6.6955e-07 0) (0.419462 -1.67807e-07 0)
0.078         (0.415116 1.67824e-07 0) (1.0192 5.98135e-07 0) (1.05828 3.96759e-07 0) (1.05838 2.02373e-07 0) (1.05838 4.17127e-08 0) (1.05838 -9.77816e-08 0) (1.05838 -2.27952e-07 0) (1.05838 -3.58884e-07 0) (1.05837 -4.99707e-07 0) (1.05193 -6.52845e-07 0) (0.415115 -1.62e-07 0)
0.0795        (0.410888 1.61881e-07 0) (1.0184 5.78959e-07 0) (1.05901 3.82962e-07 0) (1.05912 1.94191e-07 0) (1.05912 3.83193e-08 0) (1.05912 -9.70476e-08 0) (1.05912 -2.23507e-07 0) (1.05912 -3.50844e-07 0) (1.05911 -4.88092e-07 0) (1.0523 -6.3611e-07 0) (0.410887 -1.56435e-07 0)
0.081         (0.406775 1.5629e-07 0) (1.01757 5.5991e-07 0) (1.05974 3.69125e-07 0) (1.05986 1.85884e-07 0) (1.05986 3.47377e-08 0) (1.05986 -9.6563e-08 0) (1.05986 -2.19388e-07 0) (1.05986 -3.4322e-07 0) (1.05985 -4.76916e-07 0) (1.05265 -6.19884e-07 0) (0.406774 -1.51484e-07 0)
0.0825        (0.402774 1.50909e-07 0) (1.01671 5.4086e-07 0) (1.06046 3.55469e-07 0) (1.06059 1.77881e-07 0) (1.06059 3.15733e-08 0) (1.06059 -9.5561e-08 0) (1.06059 -2.14653e-07 0) (1.06059 -3.34897e-07 0) (1.06057 -4.65072e-07 0) (1.05298 -6.03152e-07 0) (0.402772 -1.46363e-07 0)
0.084         (0.398879 1.45765e-07 0) (1.01583 5.21703e-07 0) (1.06117 3.41721e-07 0) (1.06131 1.69825e-07 0) (1.06131 2.83769e-08 0) (1.06131 -9.45764e-08 0) (1.06131 -2.09922e-07 0) (1.06131 -3.26568e-07 0) (1.06129 -4.53201e-07 0) (1.0533 -5.86506e-07 0) (0.398878 -1.41484e-07 0)
0.0855        (0.395087 1.40843e-07 0) (1.01492 5.02401e-07 0) (1.06187 3.27931e-07 0) (1.06202 1.61823e-07 0) (1.06202 2.52929e-08 0) (1.06202 -9.34446e-08 0) (1.06202 -2.0502e-07 0) (1.06202 -3.18059e-07 0) (1.06201 -4.4115e-07 0) (1.05359 -5.69846e-07 0) (0.395086 -1.36774e-07 0)
0.087         (0.391396 1.36132e-07 0) (1.01399 4.82884e-07 0) (1.06256 3.14032e-07 0) (1.06273 1.53822e-07 0) (1.06273 2.22646e-08 0) (1.06273 -9.22268e-08 0) (1.06273 -2.00012e-07 0) (1.06273 -3.09438e-07 0) (1.06271 -4.28974e-07 0) (1.05387 -5.53231e-07 0) (0.391395 -1.32257e-07 0)
0.0885        (0.3878 1.31615e-07 0) (1.01304 4.63097e-07 0) (1.06325 2.99994e-07 0) (1.06343 1.45804e-07 0) (1.06343 1.92788e-08 0) (1.06343 -9.09341e-08 0) (1.06343 -1.94904e-07 0) (1.06343 -3.00701e-07 0) (1.06341 -4.16662e-07 0) (1.05413 -5.36649e-07 0) (0.387799 -1.2791e-07 0)
0.09          (0.384297 1.27273e-07 0) (1.01207 4.42981e-07 0) (1.06393 2.85781e-07 0) (1.06413 1.3776e-07 0) (1.06413 1.63114e-08 0) (1.06413 -8.95661e-08 0) (1.06413 -1.89699e-07 0) (1.06413 -2.91848e-07 0) (1.0641 -4.04211e-07 0) (1.05437 -5.20092e-07 0) (0.384296 -1.23727e-07 0)
0.0915        (0.380883 1.23096e-07 0) (1.01107 4.22521e-07 0) (1.0646 2.71383e-07 0) (1.06481 1.2968e-07 0) (1.06482 1.33928e-08 0) (1.06482 -8.81373e-08 0) (1.06482 -1.84404e-07 0) (1.06482 -2.82884e-07 0) (1.06479 -3.91623e-07 0) (1.05459 -5.03546e-07 0) (0.380882 -1.19698e-07 0)
0.093         (0.377556 1.19069e-07 0) (1.01006 4.01698e-07 0) (1.06527 2.56777e-07 0) (1.0655 1.21552e-07 0) (1.0655 1.04982e-08 0) (1.0655 -8.6657e-08 0) (1.0655 -1.79032e-07 0) (1.0655 -2.73819e-07 0) (1.06547 -3.78906e-07 0) (1.0548 -4.86997e-07 0) (0.377555 -1.15816e-07 0)
0.0945        (0.374312 1.15182e-07 0) (1.00902 3.80529e-07 0) (1.06593 2.41984e-07 0) (1.06617 1.13403e-07 0) (1.06617 7.65565e-09 0) (1.06617 -8.50941e-08 0) (1.06617 -1.73555e-07 0) (1.06617 -2.64632e-07 0) (1.06615 -3.66048e-07 0) (1.05499 -4.70418e-07 0) (0.374311 -1.12075e-07 0)
0.096         (0.371149 1.11548e-07 0) (1.00797 3.59263e-07 0) (1.06658 2.27142e-07 0) (1.06684 1.0528e-07 0) (1.06685 4.87735e-09 0) (1.06685 -8.3414e-08 0) (1.06685 -1.67875e-07 0) (1.06685 -2.55138e-07 0) (1.06681 -3.52831e-07 0) (1.05516 -4.53607e-07 0) (0.371148 -1.08319e-07 0)
0.0975        (0.368063 1.0816e-07 0) (1.0069 3.37947e-07 0) (1.06723 2.12286e-07 0) (1.06751 9.72511e-08 0) (1.06751 2.17598e-09 0) (1.06751 -8.17379e-08 0) (1.06751 -1.62326e-07 0) (1.06751 -2.45922e-07 0) (1.06748 -3.39969e-07 0) (1.05531 -4.37257e-07 0) (0.368062 -1.05053e-07 0)
0.099         (0.365053 1.04887e-07 0) (1.00581 3.16435e-07 0) (1.06787 1.97294e-07 0) (1.06817 8.92224e-08 0) (1.06817 -4.64857e-10 0) (1.06817 -7.99715e-08 0) (1.06817 -1.56666e-07 0) (1.06817 -2.36574e-07 0) (1.06813 -3.26945e-07 0) (1.05545 -4.20774e-07 0) (0.365052 -1.01892e-07 0)
0.1005        (0.362115 1.01583e-07 0) (1.00471 2.94545e-07 0) (1.0685 1.81988e-07 0) (1.06882 8.10525e-08 0) (1.06883 -3.18603e-09 0) (1.06883 -7.82833e-08 0) (1.06883 -1.51121e-07 0) (1.06883 -2.27388e-07 0) (1.06878 -3.14043e-07 0) (1.05557 -4.04338e-07 0) (0.362115 -9.89812e-08 0)
0.102         (0.359248 9.83595e-08 0) (1.00359 2.72624e-07 0) (1.06913 1.66605e-07 0) (1.06947 7.28738e-08 0) (1.06947 -5.81764e-09 0) (1.06947 -7.63615e-08 0) (1.06947 -1.45139e-07 0) (1.06947 -2.17529e-07 0) (1.06943 -3.00326e-07 0) (1.05568 -3.87065e-07 0) (0.359247 -9.5684e-08 0)
0.1035        (0.356448 9.53142e-08 0) (1.00245 2.50897e-07 0) (1.06975 1.5125e-07 0) (1.07012 6.4734e-08 0) (1.07012 -8.45734e-09 0) (1.07012 -7.45351e-08 0) (1.07012 -1.3937e-07 0) (1.07012 -2.08008e-07 0) (1.07007 -2.8698e-07 0) (1.05577 -3.70161e-07 0) (0.356448 -9.28211e-08 0)
0.105         (0.353715 9.2351e-08 0) (1.0013 2.29327e-07 0) (1.07036 1.35898e-07 0) (1.07076 5.66353e-08 0) (1.07076 -1.10251e-08 0) (1.07076 -7.26176e-08 0) (1.07076 -1.33497e-07 0) (1.07076 -1.98364e-07 0) (1.07071 -2.73466e-07 0) (1.05584 -3.53049e-07 0) (0.353714 -9.00227e-08 0)
0.1065        (0.351044 8.94445e-08 0) (1.00014 2.07942e-07 0) (1.07097 1.20547e-07 0) (1.07139 4.85392e-08 0) (1.07139 -1.35948e-08 0) (1.07139 -7.06941e-08 0) (1.07139 -1.27612e-07 0) (1.07139 -1.88696e-07 0) (1.07134 -2.59872e-07 0) (1.0559 -3.358e-07 0) (0.351043 -8.73159e-08 0)
0.108         (0.348435 8.65976e-08 0) (0.998962 1.86861e-07 0) (1.07157 1.05238e-07 0) (1.07202 4.04685e-08 0) (1.07202 -1.61326e-08 0) (1.07202 -6.87401e-08 0) (1.07202 -1.21691e-07 0) (1.07202 -1.78976e-07 0) (1.07196 -2.46177e-07 0) (1.05594 -3.18392e-07 0) (0.348434 -8.46774e-08 0)
0.1095        (0.345885 8.38042e-08 0) (0.997772 1.6608e-07 0) (1.07217 8.99972e-08 0) (1.07265 3.2433e-08 0) (1.07265 -1.86435e-08 0) (1.07265 -6.6765e-08 0) (1.07265 -1.15749e-07 0) (1.07265 -1.69225e-07 0) (1.07258 -2.32403e-07 0) (1.05597 -3.00863e-07 0) (0.345885 -8.21083e-08 0)
0.111         (0.343393 8.10729e-08 0) (0.996571 1.4573e-07 0) (1.07276 7.48549e-08 0) (1.07327 2.4436e-08 0) (1.07327 -2.11319e-08 0) (1.07327 -6.4776e-08 0) (1.07327 -1.09794e-07 0) (1.07327 -1.59451e-07 0) (1.0732 -2.18562e-07 0) (1.05599 -2.83223e-07 0) (0.343393 -7.96012e-08 0)
0.1125        (0.340957 7.83801e-08 0) (0.995357 1.2581e-07 0) (1.07334 5.98382e-08 0) (1.07388 1.64945e-08 0) (1.07388 -2.35907e-08 0) (1.07388 -6.27713e-08 0) (1.07388 -1.03831e-07 0) (1.07388 -1.49664e-07 0) (1.07381 -2.04674e-07 0) (1.05598 -2.65511e-07 0) (0.340956 -7.71544e-08 0)
0.114         (0.338574 7.57309e-08 0) (0.994133 1.06308e-07 0) (1.07392 4.49737e-08 0) (1.07449 8.62627e-09 0) (1.07449 -2.60164e-08 0) (1.07449 -6.07552e-08 0) (1.07449 -9.78673e-08 0) (1.07449 -1.39878e-07 0) (1.07441 -1.90763e-07 0) (1.05597 -2.47772e-07 0) (0.338574 -7.47661e-08 0)
0.1155        (0.336244 7.31297e-08 0) (0.992899 8.72862e-08 0) (1.07449 3.02486e-08 0) (1.0751 8.34143e-10 0) (1.0751 -2.84109e-08 0) (1.0751 -5.87334e-08 0) (1.0751 -9.19136e-08 0) (1.0751 -1.30103e-07 0) (1.07502 -1.76843e-07 0) (1.05594 -2.30022e-07 0) (0.336243 -7.24304e-08 0)
0.117         (0.333964 7.05847e-08 0) (0.991655 6.88533e-08 0) (1.07506 1.57038e-08 0) (1.0757 -6.87814e-09 0) (1.07571 -3.0772e-08 0) (1.07571 -5.67077e-08 0) (1.07571 -8.59755e-08 0) (1.07571 -1.20353e-07 0) (1.07561 -1.62942e-07 0) (1.05589 -2.12315e-07 0) (0.333963 -7.01497e-08 0)
0.1185        (0.331733 6.80552e-08 0) (0.990401 5.10324e-08 0) (1.07562 1.33767e-09 0) (1.0763 -1.45012e-08 0) (1.0763 -3.30995e-08 0) (1.0763 -5.46839e-08 0) (1.0763 -8.00627e-08 0) (1.0763 -1.10641e-07 0) (1.07621 -1.49083e-07 0) (1.05584 -1.94695e-07 0) (0.331732 -6.79186e-08 0)
0.12          (0.329549 6.55637e-08 0) (0.989138 3.35129e-08 0) (1.07618 -1.27953e-08 0) (1.0769 -2.20102e-08 0) (1.0769 -3.5384e-08 0) (1.0769 -5.26607e-08 0) (1.0769 -7.41803e-08 0) (1.0769 -1.00978e-07 0) (1.07679 -1.35284e-07 0) (1.05577 -1.77182e-07 0) (0.329549 -6.57349e-08 0)
0.1215        (0.327411 6.3093e-08 0) (0.987867 1.63778e-08 0) (1.07673 -2.67836e-08 0) (1.07749 -2.94175e-08 0) (1.07749 -3.76261e-08 0) (1.07749 -5.0643e-08 0) (1.07749 -6.8337e-08 0) (1.07749 -9.13771e-08 0) (1.07738 -1.21567e-07 0) (1.05568 -1.598e-07 0) (0.327411 -6.35956e-08 0)
0.123         (0.325318 6.06417e-08 0) (0.986588 4.28665e-11 0) (1.07728 -4.04969e-08 0) (1.07808 -3.66957e-08 0) (1.07808 -3.98238e-08 0) (1.07808 -4.86325e-08 0) (1.07808 -6.25385e-08 0) (1.07808 -8.18493e-08 0) (1.07796 -1.07953e-07 0) (1.05558 -1.42611e-07 0) (0.325318 -6.15074e-08 0)
0.1245        (0.323268 5.82516e-08 0) (0.985301 -1.61785e-08 0) (1.07782 -5.38785e-08 0) (1.07866 -4.38317e-08 0) (1.07866 -4.19739e-08 0) (1.07866 -4.66332e-08 0) (1.07866 -5.67933e-08 0) (1.07866 -7.24069e-08 0) (1.07853 -9.44637e-08 0) (1.05547 -1.25646e-07 0) (0.323268 -5.946e-08 0)
0.126         (0.32126 5.58986e-08 0) (0.984008 -3.20485e-08 0) (1.07835 -6.69555e-08 0) (1.07924 -5.08187e-08 0) (1.07924 -4.4068e-08 0) (1.07924 -4.46417e-08 0) (1.07924 -5.11045e-08 0) (1.07924 -6.30618e-08 0) (1.07911 -8.11145e-08 0) (1.05535 -1.08864e-07 0) (0.32126 -5.74499e-08 0)
0.1275        (0.319293 5.35193e-08 0) (0.982707 -4.73114e-08 0) (1.07889 -7.97445e-08 0) (1.07982 -5.76582e-08 0) (1.07982 -4.61112e-08 0) (1.07982 -4.26665e-08 0) (1.07982 -4.5483e-08 0) (1.07982 -5.38264e-08 0) (1.07967 -6.79222e-08 0) (1.05521 -9.23279e-08 0) (0.319292 -5.54797e-08 0)
0.129         (0.317364 5.12286e-08 0) (0.981401 -6.21707e-08 0) (1.07941 -9.22284e-08 0) (1.08039 -6.43474e-08 0) (1.08039 -4.8106e-08 0) (1.08039 -4.0713e-08 0) (1.08039 -3.99358e-08 0) (1.08039 -4.4709e-08 0) (1.08024 -5.48988e-08 0) (1.05507 -7.60865e-08 0) (0.317364 -5.35528e-08 0)
0.1305        (0.315474 4.90013e-08 0) (0.980088 -7.66419e-08 0) (1.07993 -1.04357e-07 0) (1.08096 -7.08549e-08 0) (1.08096 -5.00306e-08 0) (1.08096 -3.87679e-08 0) (1.08096 -3.44594e-08 0) (1.08096 -3.5718e-08 0) (1.0808 -4.20644e-08 0) (1.05491 -6.01193e-08 0) (0.315474 -5.16632e-08 0)
0.132         (0.313622 4.68087e-08 0) (0.97877 -9.05779e-08 0) (1.08045 -1.16134e-07 0) (1.08152 -7.71901e-08 0) (1.08153 -5.18982e-08 0) (1.08153 -3.6847e-08 0) (1.08153 -2.90707e-08 0) (1.08153 -2.68707e-08 0) (1.08135 -2.9435e-08 0) (1.05473 -4.44532e-08 0) (0.313621 -4.98099e-08 0)
0.1335        (0.311805 4.46023e-08 0) (0.977448 -1.03776e-07 0) (1.08096 -1.27557e-07 0) (1.08209 -8.33461e-08 0) (1.08209 -5.37015e-08 0) (1.08209 -3.4946e-08 0) (1.08209 -2.37697e-08 0) (1.08209 -1.81716e-08 0) (1.08191 -1.7018e-08 0) (1.05455 -2.9147e-08 0) (0.311805 -4.79922e-08 0)
0.135         (0.310023 4.24988e-08 0) (0.97612 -1.16558e-07 0) (1.08146 -1.38602e-07 0) (1.08265 -8.93104e-08 0) (1.08265 -5.54407e-08 0) (1.08265 -3.30707e-08 0) (1.08265 -1.85647e-08 0) (1.08265 -9.63021e-09 0) (1.08245 -4.8204e-09 0) (1.05436 -1.43099e-08 0) (0.310023 -4.62055e-08 0)
0.1365        (0.308275 4.04574e-08 0) (0.974788 -1.28799e-07 0) (1.08196 -1.49256e-07 0) (1.0832 -9.50796e-08 0) (1.08321 -5.71119e-08 0) (1.08321 -3.12197e-08 0) (1.08321 -1.34595e-08 0) (1.08321 -1.25909e-09 0) (1.083 7.12082e-09 0) (1.05415 3.0946e-10 0) (0.308275 -4.44544e-08 0)
0.138         (0.30656 3.84342e-08 0) (0.973452 -1.40443e-07 0) (1.08246 -1.5952e-07 0) (1.08376 -1.0065e-07 0) (1.08376 -5.87146e-08 0) (1.08376 -2.93953e-08 0) (1.08376 -8.45799e-09 0) (1.08376 6.93832e-09 0) (1.08354 1.8815e-08 0) (1.05393 1.45362e-08 0) (0.30656 -4.27252e-08 0)
0.1395        (0.304877 3.63324e-08 0) (0.972112 -1.51506e-07 0) (1.08295 -1.69386e-07 0) (1.08431 -1.06015e-07 0) (1.08431 -6.02445e-08 0) (1.08431 -2.75968e-08 0) (1.08431 -3.56263e-09 0) (1.08431 1.49558e-08 0) (1.08408 3.02558e-08 0) (1.0537 2.81847e-08 0) (0.304877 -4.09828e-08 0)
0.141         (0.303225 3.45782e-08 0) (0.970769 -1.62118e-07 0) (1.08343 -1.78852e-07 0) (1.08485 -1.11172e-07 0) (1.08486 -6.17034e-08 0) (1.08486 -2.58288e-08 0) (1.08486 1.21745e-09 0) (1.08486 2.27753e-08 0) (1.08461 4.13838e-08 0) (1.05346 4.18471e-08 0) (0.303225 -3.92974e-08 0)
0.1425        (0.301603 3.29774e-08 0) (0.969423 -1.72227e-07 0) (1.08392 -1.87917e-07 0) (1.0854 -1.16117e-07 0) (1.0854 -6.30878e-08 0) (1.0854 -2.40905e-08 0) (1.0854 5.88184e-09 0) (1.0854 3.03989e-08 0) (1.08514 5.2224e-08 0) (1.05321 5.51566e-08 0) (0.301603 -3.7645e-08 0)
0.144         (0.300011 3.14437e-08 0) (0.968074 -1.81795e-07 0) (1.08439 -1.96568e-07 0) (1.08594 -1.20846e-07 0) (1.08594 -6.43979e-08 0) (1.08594 -2.2384e-08 0) (1.08594 1.04253e-08 0) (1.08594 3.78159e-08 0) (1.08567 6.27569e-08 0) (1.05296 6.80846e-08 0) (0.300011 -3.60144e-08 0)
0.1455        (0.298448 2.99165e-08 0) (0.966723 -1.90893e-07 0) (1.08486 -2.04814e-07 0) (1.08648 -1.25355e-07 0) (1.08648 -6.56302e-08 0) (1.08648 -2.07091e-08 0) (1.08648 1.48454e-08 0) (1.08648 4.50214e-08 0) (1.0862 7.29741e-08 0) (1.05269 8.05962e-08 0) (0.298448 -3.44008e-08 0)
0.147         (0.296912 2.85079e-08 0) (0.965369 -1.99498e-07 0) (1.08533 -2.12651e-07 0) (1.08701 -1.29642e-07 0) (1.08702 -6.67844e-08 0) (1.08702 -1.90663e-08 0) (1.08702 1.91401e-08 0) (1.08702 5.20123e-08 0) (1.08672 8.28715e-08 0) (1.05241 9.26268e-08 0) (0.296912 -3.28425e-08 0)
0.1485        (0.295403 2.71686e-08 0) (0.964014 -2.07597e-07 0) (1.08579 -2.20064e-07 0) (1.08754 -1.33706e-07 0) (1.08755 -6.78615e-08 0) (1.08755 -1.74584e-08 0) (1.08755 2.33052e-08 0) (1.08755 5.87815e-08 0) (1.08723 9.24426e-08 0) (1.05212 1.04164e-07 0) (0.295403 -3.132e-08 0)
0.15          (0.29392 2.58649e-08 0) (0.962657 -2.15231e-07 0) (1.08625 -2.27066e-07 0) (1.08807 -1.37544e-07 0) (1.08808 -6.88576e-08 0) (1.08808 -1.58828e-08 0) (1.08808 2.73416e-08 0) (1.08808 6.53297e-08 0) (1.08775 1.01689e-07 0) (1.05182 1.15154e-07 0) (0.29392 -2.98139e-08 0)
0.1515        (0.292463 2.45983e-08 0) (0.961298 -2.2239e-07 0) (1.0867 -2.33651e-07 0) (1.0886 -1.41158e-07 0) (1.08861 -6.97764e-08 0) (1.08861 -1.43446e-08 0) (1.08861 3.12419e-08 0) (1.08861 7.1645e-08 0) (1.08826 1.1059e-07 0) (1.05151 1.25705e-07 0) (0.292463 -2.82983e-08 0)
0.153         (0.291031 2.33941e-08 0) (0.959939 -2.29061e-07 0) (1.08715 -2.39813e-07 0) (1.08913 -1.44544e-07 0) (1.08913 -7.06126e-08 0) (1.08913 -1.28393e-08 0) (1.08913 3.501e-08 0) (1.08913 7.77306e-08 0) (1.08877 1.19152e-07 0) (1.05119 1.35804e-07 0) (0.291031 -2.68629e-08 0)
0.1545        (0.289624 2.22331e-08 0) (0.958578 -2.35263e-07 0) (1.08759 -2.45559e-07 0) (1.08965 -1.47704e-07 0) (1.08966 -7.13697e-08 0) (1.08966 -1.13701e-08 0) (1.08966 3.86423e-08 0) (1.08966 8.3584e-08 0) (1.08927 1.27372e-07 0) (1.05086 1.45419e-07 0) (0.289624 -2.54714e-08 0)