# Probe 0 (2 0 0.005)
# Probe 1 (2 0.01 0.005)
# Probe 2 (2 0.02 0.005)
# Probe 3 (2 0.03 0.005)
# Probe 4 (2 0.04 0.005)
# Probe 5 (2 0.05 0.005)
# Probe 6 (2 0.06 0.005)
# Probe 7 (2 0.07 0.005)
# Probe 8 (2 0.08 0.005)
# Probe 9 (2 0.09 0.005)
# Probe 10 (2 0.1 0.005)
# Time        0             1             2             3             4             5             6             7             8             9             10           
0             (0 0 0)       (0 0 0)       (0 0 0)       (0 0 0)       (0 0 0)       (0 0 0)       (0 0 0)       (0 0 0)       (0 0 0)       (0 0 0)       (0 0 0)      
0.0015        (0.97672 -2.74396e-07 0) (1.00224 -7.13669e-09 0) (1.00224 -4.14597e-07 0) (1.00224 -7.06756e-07 0) (1.00224 -9.64343e-07 0) (1.00224 -1.18382e-06 0) (1.00224 -1.3696e-06 0) (1.00224 -1.50036e-06 0) (1.00224 -1.46385e-06 0) (1.00224 -8.20466e-07 0) (0.976721 3.5788e-07 0)
0.003         (0.951553 4.08471e-07 0) (1.00337 3.26214e-07 0) (1.00337 1.60957e-07 0) (1.00337 2.71723e-07 0) (1.00337 3.70327e-07 0) (1.00337 4.4421e-07 0) (1.00337 4.94171e-07 0) (1.00337 5.17289e-07 0) (1.00337 4.89977e-07 0) (1.00337 1.70899e-07 0) (0.951552 -2.03814e-06 0)
0.0045        (0.928994 2.82073e-07 0) (1.00518 2.24155e-07 0) (1.0052 -8.1435e-10 0) (1.0052 8.22049e-09 0) (1.0052 1.85147e-08 0) (1.0052 2.41206e-08 0) (1.0052 2.54848e-08 0) (1.0052 2.37362e-08 0) (1.0052 2.23681e-08 0) (1.0052 -8.52864e-08 0) (0.928994 -1.35789e-06 0)
0.006         (0.907049 1.8461e-07 0) (1.00678 1.60971e-07 0) (1.00684 3.91265e-09 0) (1.00684 1.54837e-08 0) (1.00684 2.63162e-08 0) (1.00684 3.26011e-08 0) (1.00684 3.64725e-08 0) (1.00684 4.01635e-08 0) (1.00684 4.62705e-08 0) (1.00684 -1.35666e-08 0) (0.907049 -9.3412e-07 0)
0.0075        (0.88592 1.04795e-07 0) (1.00835 1.08362e-07 0) (1.00845 5.23531e-09 0) (1.00845 1.59593e-08 0) (1.00845 2.41901e-08 0) (1.00845 2.83303e-08 0) (1.00845 3.08852e-08 0) (1.00845 3.44874e-08 0) (1.00845 4.17478e-08 0) (1.00845 1.13271e-08 0) (0.885919 -6.55317e-07 0)
0.009         (0.865583 4.8074e-08 0) (1.00987 6.6876e-08 0) (1.01003 5.19112e-09 0) (1.01003 1.55779e-08 0) (1.01003 2.26167e-08 0) (1.01003 2.56361e-08 0) (1.01003 2.72959e-08 0) (1.01003 3.03575e-08 0) (1.01003 3.69631e-08 0) (1.01002 2.28355e-08 0) (0.865583 -4.76495e-07 0)
0.0105        (0.846012 8.46042e-09 0) (1.01132 3.62054e-08 0) (1.01157 6.3446e-09 0) (1.01157 1.72763e-08 0) (1.01157 2.40974e-08 0) (1.01157 2.67713e-08 0) (1.01157 2.80379e-08 0) (1.01157 3.06646e-08 0) (1.01157 3.5978e-08 0) (1.01156 3.30041e-08 0) (0.846011 -3.47087e-07 0)
0.012         (0.827175 -1.79458e-08 0) (1.01271 1.46002e-08 0) (1.01307 7.57214e-09 0) (1.01307 1.86865e-08 0) (1.01307 2.52006e-08 0) (1.01307 2.74914e-08 0) (1.01307 2.8335e-08 0) (1.01307 3.04891e-08 0) (1.01307 3.46996e-08 0) (1.01306 3.87333e-08 0) (0.827175 -2.5353e-07 0)
0.0135        (0.809045 -3.50446e-08 0) (1.01405 -2.05588e-11 0) (1.01455 8.68212e-09 0) (1.01455 1.95675e-08 0) (1.01455 2.55435e-08 0) (1.01455 2.72902e-08 0) (1.01455 2.76112e-08 0) (1.01455 2.92333e-08 0) (1.01455 3.26297e-08 0) (1.01453 4.07023e-08 0) (0.809044 -1.85795e-07 0)
0.015         (0.791589 -4.58733e-08 0) (1.01532 -9.78414e-09 0) (1.01599 9.95504e-09 0) (1.01599 2.06505e-08 0) (1.01599 2.61517e-08 0) (1.01599 2.74326e-08 0) (1.01599 2.73394e-08 0) (1.01599 2.85326e-08 0) (1.01599 3.13216e-08 0) (1.01596 4.18326e-08 0) (0.791589 -1.35234e-07 0)
0.0165        (0.77478 -5.19591e-08 0) (1.01654 -1.60663e-08 0) (1.0174 1.11043e-08 0) (1.0174 2.12952e-08 0) (1.0174 2.60861e-08 0) (1.0174 2.67169e-08 0) (1.0174 2.60645e-08 0) (1.0174 2.67125e-08 0) (1.0174 2.89822e-08 0) (1.01736 4.07063e-08 0) (0.77478 -9.79991e-08 0)
0.018         (0.758592 -5.43505e-08 0) (1.01769 -2.02261e-08 0) (1.01878 1.24566e-08 0) (1.01878 2.203e-08 0) (1.01878 2.61658e-08 0) (1.01878 2.62254e-08 0) (1.01878 2.51054e-08 0) (1.01878 2.52955e-08 0) (1.01878 2.71639e-08 0) (1.01873 3.91078e-08 0) (0.758591 -7.04648e-08 0)
0.0195        (0.742996 -5.3862e-08 0) (1.01878 -2.30487e-08 0) (1.02013 1.39228e-08 0) (1.02013 2.27369e-08 0) (1.02013 2.62031e-08 0) (1.02013 2.56873e-08 0) (1.02013 2.41043e-08 0) (1.02013 2.38485e-08 0) (1.02013 2.53622e-08 0) (1.02007 3.70794e-08 0) (0.742996 -5.01485e-08 0)
0.021         (0.72797 -5.25645e-08 0) (1.0198 -2.4491e-08 0) (1.02145 1.53411e-08 0) (1.02145 2.33682e-08 0) (1.02145 2.61408e-08 0) (1.02145 2.50413e-08 0) (1.02145 2.29963e-08 0) (1.02145 2.23085e-08 0) (1.02145 2.35038e-08 0) (1.02137 3.47609e-08 0) (0.727969 -3.52758e-08 0)
0.0225        (0.713488 -5.09833e-08 0) (1.02077 -2.45243e-08 0) (1.02275 1.66833e-08 0) (1.02275 2.39425e-08 0) (1.02275 2.60163e-08 0) (1.02275 2.43361e-08 0) (1.02275 2.18378e-08 0) (1.02275 2.07424e-08 0) (1.02275 2.16601e-08 0) (1.02265 3.23186e-08 0) (0.713488 -2.45095e-08 0)
0.024         (0.699528 -4.89525e-08 0) (1.02167 -2.38015e-08 0) (1.02402 1.79955e-08 0) (1.02402 2.44675e-08 0) (1.02402 2.58421e-08 0) (1.02402 2.35885e-08 0) (1.02402 2.06476e-08 0) (1.02402 1.91717e-08 0) (1.02402 1.98492e-08 0) (1.0239 2.98202e-08 0) (0.699528 -1.67603e-08 0)
0.0255        (0.686069 -4.65464e-08 0) (1.02251 -2.26906e-08 0) (1.02527 1.92376e-08 0) (1.02527 2.49393e-08 0) (1.02527 2.56233e-08 0) (1.02527 2.28071e-08 0) (1.02527 1.94371e-08 0) (1.02527 1.76103e-08 0) (1.02527 1.80834e-08 0) (1.02511 2.72418e-08 0) (0.686069 -1.11214e-08 0)
0.027         (0.67309 -4.35784e-08 0) (1.02329 -2.13276e-08 0) (1.02649 2.02179e-08 0) (1.02649 2.52284e-08 0) (1.02649 2.52975e-08 0) (1.02649 2.20034e-08 0) (1.02649 1.82877e-08 0) (1.02649 1.61919e-08 0) (1.02649 1.6518e-08 0) (1.0263 2.40156e-08 0) (0.67309 -9.48167e-09 0)
0.0285        (0.660571 -4.06905e-08 0) (1.024 -1.98889e-08 0) (1.02769 2.10633e-08 0) (1.02769 2.54648e-08 0) (1.02769 2.49413e-08 0) (1.02769 2.11852e-08 0) (1.02769 1.71378e-08 0) (1.02769 1.47993e-08 0) (1.02769 1.50002e-08 0) (1.02746 2.10812e-08 0) (0.660571 -8.70108e-09 0)
0.03          (0.648493 -3.80553e-08 0) (1.02466 -1.85013e-08 0) (1.02887 2.18072e-08 0) (1.02887 2.56461e-08 0) (1.02887 2.45277e-08 0) (1.02887 2.02995e-08 0) (1.02887 1.59115e-08 0) (1.02887 1.33428e-08 0) (1.02887 1.34492e-08 0) (1.02859 1.85483e-08 0) (0.648493 -7.9389e-09 0)
0.0315        (0.636837 -3.56541e-08 0) (1.02526 -1.70109e-08 0) (1.03003 2.24199e-08 0) (1.03003 2.57567e-08 0) (1.03003 2.40457e-08 0) (1.03003 1.93339e-08 0) (1.03003 1.4594e-08 0) (1.03003 1.17989e-08 0) (1.03003 1.18439e-08 0) (1.0297 1.61606e-08 0) (0.636837 -7.37112e-09 0)
0.033         (0.625587 -3.34631e-08 0) (1.0258 -1.53116e-08 0) (1.03116 2.29116e-08 0) (1.03117 2.58127e-08 0) (1.03117 2.35334e-08 0) (1.03117 1.83424e-08 0) (1.03117 1.32528e-08 0) (1.03117 1.02468e-08 0) (1.03117 1.02691e-08 0) (1.03077 1.37815e-08 0) (0.625587 -7.22949e-09 0)
0.0345        (0.614726 -3.14792e-08 0) (1.02628 -1.34835e-08 0) (1.03228 2.32991e-08 0) (1.03228 2.58028e-08 0) (1.03228 2.29814e-08 0) (1.03228 1.73156e-08 0) (1.03228 1.18804e-08 0) (1.03228 8.67441e-09 0) (1.03228 8.7104e-09 0) (1.03182 1.1413e-08 0) (0.614726 -7.35459e-09 0)
0.036         (0.604238 -2.97242e-08 0) (1.0267 -1.16225e-08 0) (1.03338 2.36164e-08 0) (1.03338 2.57415e-08 0) (1.03338 2.24073e-08 0) (1.03338 1.62671e-08 0) (1.03338 1.04816e-08 0) (1.03338 7.0802e-09 0) (1.03338 7.14732e-09 0) (1.03285 9.12727e-09 0) (0.604238 -7.51204e-09 0)
0.0375        (0.594107 -2.83876e-08 0) (1.02706 -9.76008e-09 0) (1.03446 2.40798e-08 0) (1.03446 2.57732e-08 0) (1.03446 2.18877e-08 0) (1.03446 1.51923e-08 0) (1.03446 8.96841e-09 0) (1.03446 5.30541e-09 0) (1.03446 5.37284e-09 0) (1.03385 7.39158e-09 0) (0.594107 -5.93809e-09 0)
0.039         (0.58432 -2.72725e-08 0) (1.02737 -7.87727e-09 0) (1.03552 2.45492e-08 0) (1.03552 2.57943e-08 0) (1.03552 2.13945e-08 0) (1.03552 1.41452e-08 0) (1.03552 7.48085e-09 0) (1.03552 3.53841e-09 0) (1.03552 3.61484e-09 0) (1.03482 5.84332e-09 0) (0.58432 -4.05855e-09 0)
0.0405        (0.574863 -2.62273e-08 0) (1.02763 -5.98133e-09 0) (1.03656 2.50096e-08 0) (1.03656 2.57557e-08 0) (1.03656 2.08806e-08 0) (1.03656 1.30845e-08 0) (1.03656 5.97146e-09 0) (1.03656 1.74938e-09 0) (1.03656 1.81968e-09 0) (1.03577 4.15068e-09 0) (0.574862 -2.57631e-09 0)
0.042         (0.565721 -2.51615e-08 0) (1.02783 -4.07502e-09 0) (1.03758 2.53436e-08 0) (1.03759 2.55628e-08 0) (1.03759 2.03094e-08 0) (1.03759 1.20416e-08 0) (1.03759 4.53463e-09 0) (1.03759 6.85197e-11 0) (1.03759 1.40571e-10 0) (1.03669 2.11663e-09 0) (0.565721 -2.44576e-09 0)
0.0435        (0.556884 -2.42231e-08 0) (1.02797 -2.18433e-09 0) (1.03859 2.559e-08 0) (1.0386 2.51427e-08 0) (1.0386 1.95097e-08 0) (1.0386 1.07581e-08 0) (1.0386 2.80406e-09 0) (1.0386 -1.94455e-09 0) (1.0386 -1.8626e-09 0) (1.03759 -1.72312e-10 0) (0.556884 -2.62138e-09 0)
0.045         (0.548338 -2.34499e-08 0) (1.02807 -2.92226e-10 0) (1.03959 2.59504e-08 0) (1.03959 2.47901e-08 0) (1.03959 1.88568e-08 0) (1.03959 9.6856e-09 0) (1.03959 1.32846e-09 0) (1.03959 -3.66233e-09 0) (1.03959 -3.59361e-09 0) (1.03846 -2.08576e-09 0) (0.548338 -2.57065e-09 0)
0.0465        (0.540072 -2.28167e-08 0) (1.02811 1.59195e-09 0) (1.04057 2.63649e-08 0) (1.04057 2.43742e-08 0) (1.04057 1.81508e-08 0) (1.04057 8.58205e-09 0) (1.04057 -2.41427e-10 0) (1.04057 -5.44985e-09 0) (1.04057 -5.42543e-09 0) (1.03931 -3.92616e-09 0) (0.540072 -2.32005e-09 0)
0.048         (0.532075 -2.22924e-08 0) (1.02811 3.44738e-09 0) (1.04153 2.68286e-08 0) (1.04154 2.38902e-08 0) (1.04154 1.73725e-08 0) (1.04154 7.43584e-09 0) (1.04154 -1.82819e-09 0) (1.04154 -7.31218e-09 0) (1.04154 -7.32691e-09 0) (1.04013 -5.84154e-09 0) (0.532075 -1.95772e-09 0)
0.0495        (0.524337 -2.18543e-08 0) (1.02805 5.27076e-09 0) (1.04248 2.73567e-08 0) (1.04249 2.33604e-08 0) (1.04249 1.653e-08 0) (1.04249 6.26986e-09 0) (1.04249 -3.43301e-09 0) (1.04249 -9.19997e-09 0) (1.04249 -9.25594e-09 0) (1.04093 -7.78631e-09 0) (0.524336 -1.53038e-09 0)
0.051         (0.516846 -2.15393e-08 0) (1.02795 7.17138e-09 0) (1.04342 2.81084e-08 0) (1.04343 2.29761e-08 0) (1.04343 1.57994e-08 0) (1.04343 5.25545e-09 0) (1.04343 -4.86293e-09 0) (1.04343 -1.09689e-08 0) (1.04343 -1.10829e-08 0) (1.04171 -9.4446e-09 0) (0.516846 -4.58193e-10 0)
0.0525        (0.509594 -2.12619e-08 0) (1.0278 9.14524e-09 0) (1.04434 2.88883e-08 0) (1.04435 2.24938e-08 0) (1.04435 1.48696e-08 0) (1.04435 4.05128e-09 0) (1.04435 -6.48355e-09 0) (1.04435 -1.29765e-08 0) (1.04435 -1.31553e-08 0) (1.04247 -1.13444e-08 0) (0.509593 5.43277e-10 0)
0.054         (0.50257 -2.1004e-08 0) (1.02761 1.11738e-08 0) (1.04525 2.97291e-08 0) (1.04526 2.20154e-08 0) (1.04526 1.38641e-08 0) (1.04526 2.80163e-09 0) (1.04526 -8.12275e-09 0) (1.04526 -1.50077e-08 0) (1.04526 -1.5269e-08 0) (1.0432 -1.32862e-08 0) (0.50257 1.41116e-09 0)
0.0555        (0.495767 -2.07529e-08 0) (1.02737 1.32607e-08 0) (1.04614 3.06297e-08 0) (1.04616 2.15527e-08 0) (1.04616 1.27676e-08 0) (1.04616 1.47839e-09 0) (1.04616 -9.82425e-09 0) (1.04616 -1.71456e-08 0) (1.04616 -1.7524e-08 0) (1.0439 -1.54111e-08 0) (0.495767 2.11813e-09 0)
0.057         (0.489176 -2.05209e-08 0) (1.02709 1.53841e-08 0) (1.04703 3.15928e-08 0) (1.04705 2.11469e-08 0) (1.04705 1.1628e-08 0) (1.04705 1.56733e-10 0) (1.04705 -1.14733e-08 0) (1.04705 -1.92082e-08 0) (1.04705 -1.97014e-08 0) (1.04459 -1.74878e-08 0) (0.489176 2.80865e-09 0)
0.0585        (0.482788 -2.03017e-08 0) (1.02676 1.75444e-08 0) (1.0479 3.26089e-08 0) (1.04792 2.07965e-08 0) (1.04792 1.04267e-08 0) (1.04792 -1.21197e-09 0) (1.04792 -1.31367e-08 0) (1.04792 -2.12905e-08 0) (1.04792 -2.19129e-08 0) (1.04525 -1.96274e-08 0) (0.482788 3.40788e-09 0)
0.06          (0.476595 -2.00924e-08 0) (1.0264 1.97471e-08 0) (1.04876 3.36741e-08 0) (1.04879 2.05023e-08 0) (1.04879 9.1663e-09 0) (1.04879 -2.6578e-09 0) (1.04879 -1.48199e-08 0) (1.04879 -2.33938e-08 0) (1.04878 -2.41582e-08 0) (1.04589 -2.18047e-08 0) (0.476595 3.92089e-09 0)
0.0615        (0.470591 -1.98902e-08 0) (1.02599 2.19988e-08 0) (1.04961 3.47823e-08 0) (1.04964 2.0262e-08 0) (1.04964 7.85117e-09 0) (1.04964 -4.1773e-09 0) (1.04964 -1.65335e-08 0) (1.04964 -2.55214e-08 0) (1.04964 -2.64407e-08 0) (1.04651 -2.4028e-08 0) (0.470591 4.37465e-09 0)
0.063         (0.464768 -1.96975e-08 0) (1.02555 2.42873e-08 0) (1.05045 3.59132e-08 0) (1.05048 2.00614e-08 0) (1.05048 6.48744e-09 0) (1.05048 -5.76296e-09 0) (1.05048 -1.82638e-08 0) (1.05048 -2.76433e-08 0) (1.05048 -2.87186e-08 0) (1.04711 -2.62598e-08 0) (0.464768 4.78943e-09 0)
0.0645        (0.459119 -1.95085e-08 0) (1.02507 2.66373e-08 0) (1.05127 3.71105e-08 0) (1.05131 1.99398e-08 0) (1.05131 5.12836e-09 0) (1.05131 -7.42036e-09 0) (1.05131 -2.00437e-08 0) (1.05131 -2.98116e-08 0) (1.05131 -3.10679e-08 0) (1.04769 -2.85765e-08 0) (0.459119 5.15857e-09 0)
0.066         (0.453637 -1.9363e-08 0) (1.02455 2.89894e-08 0) (1.05209 3.83848e-08 0) (1.05213 1.99246e-08 0) (1.05213 3.85355e-09 0) (1.05213 -9.03906e-09 0) (1.05213 -2.168e-08 0) (1.05213 -3.17565e-08 0) (1.05213 -3.31699e-08 0) (1.04824 -3.05531e-08 0) (0.453637 5.88978e-09 0)
0.0675        (0.448317 -1.92018e-08 0) (1.024 3.14431e-08 0) (1.0529 3.97297e-08 0) (1.05295 1.9943e-08 0) (1.05295 2.53588e-09 0) (1.05295 -1.08722e-08 0) (1.05295 -2.35662e-08 0) (1.05295 -3.39952e-08 0) (1.05294 -3.56288e-08 0) (1.04877 -3.28826e-08 0) (0.448317 6.52861e-09 0)
0.069         (0.443152 -1.90411e-08 0) (1.02341 3.39557e-08 0) (1.05369 4.1136e-08 0) (1.05375 2.0011e-08 0) (1.05375 1.24609e-09 0) (1.05375 -1.27699e-08 0) (1.05375 -2.54881e-08 0) (1.05375 -3.623e-08 0) (1.05374 -3.80966e-08 0) (1.04928 -3.52462e-08 0) (0.443152 7.06706e-09 0)
0.0705        (0.438136 -1.88802e-08 0) (1.02278 3.6522e-08 0) (1.05448 4.26016e-08 0) (1.05454 2.01114e-08 0) (1.05454 2.10747e-11 0) (1.05454 -1.47451e-08 0) (1.05454 -2.74733e-08 0) (1.05454 -3.84846e-08 0) (1.05454 -4.06007e-08 0) (1.04977 -3.76728e-08 0) (0.438136 7.50792e-09 0)
0.072         (0.433265 -1.87181e-08 0) (1.02213 3.91439e-08 0) (1.05526 4.41307e-08 0) (1.05533 2.02436e-08 0) (1.05533 -1.1349e-09 0) (1.05533 -1.67762e-08 0) (1.05533 -2.95186e-08 0) (1.05533 -4.0747e-08 0) (1.05532 -4.31252e-08 0) (1.05025 -4.01425e-08 0) (0.433265 7.87371e-09 0)
0.0735        (0.428532 -1.85577e-08 0) (1.02144 4.18109e-08 0) (1.05603 4.57209e-08 0) (1.0561 2.04028e-08 0) (1.0561 -2.22631e-09 0) (1.0561 -1.88496e-08 0) (1.0561 -3.16327e-08 0) (1.0561 -4.3022e-08 0) (1.05609 -4.56722e-08 0) (1.0507 -4.26504e-08 0) (0.428531 8.179e-09 0)
0.075         (0.423932 -1.83995e-08 0) (1.02072 4.452e-08 0) (1.05679 4.73723e-08 0) (1.05687 2.05873e-08 0) (1.05687 -3.25774e-09 0) (1.05687 -2.0949e-08 0) (1.05687 -3.38212e-08 0) (1.05687 -4.53121e-08 0) (1.05686 -4.82411e-08 0) (1.05113 -4.51903e-08 0) (0.423932 8.43563e-09 0)
0.0765        (0.419461 -1.82432e-08 0) (1.01998 4.72721e-08 0) (1.05754 4.90875e-08 0) (1.05763 2.07988e-08 0) (1.05763 -4.23656e-09 0) (1.05763 -2.30576e-08 0) (1.05763 -3.60884e-08 0) (1.05763 -4.76214e-08 0) (1.05762 -5.08301e-08 0) (1.05154 -4.77551e-08 0) (0.419461 8.65279e-09 0)
0.078         (0.415114 -1.80888e-08 0) (1.0192 5.00646e-08 0) (1.05828 5.08646e-08 0) (1.05838 2.10396e-08 0) (1.05838 -5.1704e-09 0) (1.05838 -2.51587e-08 0) (1.05838 -3.84358e-08 0) (1.05838 -4.99542e-08 0) (1.05837 -5.34385e-08 0) (1.05193 -5.03461e-08 0) (0.415113 8.83289e-09 0)
0.0795        (0.410886 -1.79369e-08 0) (1.0184 5.28924e-08 0) (1.05901 5.27008e-08 0) (1.05912 2.13142e-08 0) (1.05912 -6.06341e-09 0) (1.05912 -2.72332e-08 0) (1.05912 -4.08583e-08 0) (1.05912 -5.23123e-08 0) (1.05911 -5.60634e-08 0) (1.0523 -5.29592e-08 0) (0.410886 8.98188e-09 0)
0.081         (0.406773 -1.77633e-08 0) (1.01757 5.58701e-08 0) (1.05974 5.48437e-08 0) (1.05986 2.1992e-08 0) (1.05986 -6.47669e-09 0) (1.05986 -2.87805e-08 0) (1.05986 -4.28803e-08 0) (1.05986 -5.43005e-08 0) (1.05985 -5.84141e-08 0) (1.05265 -5.54435e-08 0) (0.406773 9.10607e-09 0)
0.0825        (0.402771 -1.76123e-08 0) (1.01671 5.87703e-08 0) (1.06046 5.67967e-08 0) (1.06059 2.23469e-08 0) (1.06059 -7.31807e-09 0) (1.06059 -3.07699e-08 0) (1.06059 -4.54432e-08 0) (1.06059 -5.6731e-08 0) (1.06057 -6.10718e-08 0) (1.05298 -5.80919e-08 0) (0.402771 9.218e-09 0)
0.084         (0.398877 -1.74628e-08 0) (1.01583 6.16947e-08 0) (1.06117 5.87865e-08 0) (1.06131 2.27244e-08 0) (1.06131 -8.16639e-09 0) (1.06131 -3.27258e-08 0) (1.06131 -4.808e-08 0) (1.06131 -5.92205e-08 0) (1.06129 -6.37537e-08 0) (1.0533 -6.07615e-08 0) (0.398877 9.28585e-09 0)
0.0855        (0.395085 -1.73117e-08 0) (1.01492 6.46529e-08 0) (1.06187 6.0837e-08 0) (1.06202 2.31597e-08 0) (1.06202 -8.98603e-09 0) (1.06202 -3.46107e-08 0) (1.06202 -5.07479e-08 0) (1.06202 -6.17498e-08 0) (1.06201 -6.64421e-08 0) (1.05359 -6.34408e-08 0) (0.395085 9.32233e-09 0)
0.087         (0.391394 -1.71577e-08 0) (1.01399 6.76445e-08 0) (1.06256 6.29483e-08 0) (1.06273 2.36564e-08 0) (1.06273 -9.7723e-09 0) (1.06273 -3.64187e-08 0) (1.06273 -5.34259e-08 0) (1.06273 -6.43183e-08 0) (1.06271 -6.91321e-08 0) (1.05387 -6.6125e-08 0) (0.391393 9.33605e-09 0)
0.0885        (0.387798 -1.70011e-08 0) (1.01304 7.0662e-08 0) (1.06325 6.51071e-08 0) (1.06343 2.41965e-08 0) (1.06343 -1.05441e-08 0) (1.06343 -3.81768e-08 0) (1.06343 -5.61215e-08 0) (1.06343 -6.69498e-08 0) (1.06341 -7.18381e-08 0) (1.05413 -6.88192e-08 0) (0.387798 9.33301e-09 0)
0.09          (0.384295 -1.68415e-08 0) (1.01207 7.37044e-08 0) (1.06393 6.73151e-08 0) (1.06413 2.47843e-08 0) (1.06413 -1.12891e-08 0) (1.06413 -3.98823e-08 0) (1.06413 -5.88118e-08 0) (1.06413 -6.96415e-08 0) (1.0641 -7.45569e-08 0) (1.05437 -7.15203e-08 0) (0.384295 9.31612e-09 0)
0.0915        (0.380881 -1.66785e-08 0) (1.01107 7.67682e-08 0) (1.0646 6.95685e-08 0) (1.06482 2.54157e-08 0) (1.06482 -1.20044e-08 0) (1.06482 -4.15447e-08 0) (1.06482 -6.14852e-08 0) (1.06482 -7.23977e-08 0) (1.06479 -7.72914e-08 0) (1.05459 -7.42267e-08 0) (0.380881 9.28787e-09 0)
0.093         (0.377554 -1.65116e-08 0) (1.01006 7.98514e-08 0) (1.06527 7.18644e-08 0) (1.0655 2.60873e-08 0) (1.0655 -1.26842e-08 0) (1.0655 -4.31724e-08 0) (1.0655 -6.413e-08 0) (1.0655 -7.522e-08 0) (1.06547 -8.00451e-08 0) (1.0548 -7.69373e-08 0) (0.377554 9.24918e-09 0)
0.0945        (0.37431 -1.63389e-08 0) (1.00902 8.29597e-08 0) (1.06593 7.42175e-08 0) (1.06617 2.68202e-08 0) (1.06617 -1.32969e-08 0) (1.06617 -4.47448e-08 0) (1.06617 -6.6711e-08 0) (1.06617 -7.8087e-08 0) (1.06615 -8.2808e-08 0) (1.05499 -7.96447e-08 0) (0.37431 9.20317e-09 0)
0.096         (0.371147 -1.61801e-08 0) (1.00797 8.6016e-08 0) (1.06658 7.65061e-08 0) (1.06685 2.74425e-08 0) (1.06685 -1.40407e-08 0) (1.06685 -4.64746e-08 0) (1.06685 -6.94019e-08 0) (1.06685 -8.11201e-08 0) (1.06681 -8.56378e-08 0) (1.05516 -8.22966e-08 0) (0.371147 9.27032e-09 0)
0.0975        (0.368061 -1.59979e-08 0) (1.0069 8.91533e-08 0) (1.06723 7.8956e-08 0) (1.06751 2.82751e-08 0) (1.06751 -1.45362e-08 0) (1.06751 -4.79849e-08 0) (1.06751 -7.18745e-08 0) (1.06751 -8.41032e-08 0) (1.06748 -8.8466e-08 0) (1.05531 -8.49851e-08 0) (0.368061 9.29844e-09 0)
0.099         (0.365051 -1.58082e-08 0) (1.00581 9.23092e-08 0) (1.06787 8.14566e-08 0) (1.06817 2.91718e-08 0) (1.06817 -1.4948e-08 0) (1.06817 -4.94382e-08 0) (1.06817 -7.42573e-08 0) (1.06817 -8.71027e-08 0) (1.06813 -9.13076e-08 0) (1.05545 -8.76684e-08 0) (0.365051 9.31262e-09 0)
0.1005        (0.362113 -1.55954e-08 0) (1.00471 9.5531e-08 0) (1.0685 8.4071e-08 0) (1.06883 3.02301e-08 0) (1.06883 -1.51584e-08 0) (1.06883 -5.0712e-08 0) (1.06883 -7.64496e-08 0) (1.06883 -9.00507e-08 0) (1.06878 -9.41607e-08 0) (1.05557 -9.04192e-08 0) (0.362113 9.18887e-09 0)
0.102         (0.359246 -1.54067e-08 0) (1.00359 9.86516e-08 0) (1.06913 8.65427e-08 0) (1.06947 3.10913e-08 0) (1.06947 -1.55926e-08 0) (1.06947 -5.22315e-08 0) (1.06947 -7.88136e-08 0) (1.06947 -9.31578e-08 0) (1.06943 -9.70877e-08 0) (1.05568 -9.30748e-08 0) (0.359246 9.18898e-09 0)
0.1035        (0.356447 -1.51972e-08 0) (1.00245 1.01823e-07 0) (1.06975 8.91293e-08 0) (1.07012 3.21201e-08 0) (1.07012 -1.58278e-08 0) (1.07012 -5.35666e-08 0) (1.07012 -8.10005e-08 0) (1.07012 -9.6201e-08 0) (1.07007 -1.00049e-07 0) (1.05577 -9.57717e-08 0) (0.356446 9.1434e-09 0)
0.105         (0.353713 -1.49804e-08 0) (1.0013 1.04998e-07 0) (1.07036 9.17567e-08 0) (1.07076 3.3222e-08 0) (1.07076 -1.59725e-08 0) (1.07076 -5.48129e-08 0) (1.07076 -8.30894e-08 0) (1.07076 -9.91961e-08 0) (1.07071 -1.03027e-07 0) (1.05584 -9.84523e-08 0) (0.353713 9.09304e-09 0)
0.1065        (0.351042 -1.47569e-08 0) (1.00014 1.08165e-07 0) (1.07097 9.44009e-08 0) (1.07139 3.43676e-08 0) (1.07139 -1.60626e-08 0) (1.07139 -5.59999e-08 0) (1.07139 -8.5118e-08 0) (1.07139 -1.02161e-07 0) (1.07134 -1.06051e-07 0) (1.0559 -1.01138e-07 0) (0.351042 9.02636e-09 0)
0.108         (0.348433 -1.45268e-08 0) (0.998961 1.11322e-07 0) (1.07157 9.7066e-08 0) (1.07202 3.55674e-08 0) (1.07202 -1.60855e-08 0) (1.07202 -5.71068e-08 0) (1.07202 -8.70735e-08 0) (1.07202 -1.05067e-07 0) (1.07196 -1.09107e-07 0) (1.05594 -1.03822e-07 0) (0.348433 8.94713e-09 0)
0.1095        (0.345884 -1.42902e-08 0) (0.997772 1.14463e-07 0) (1.07217 9.97462e-08 0) (1.07265 3.68173e-08 0) (1.07265 -1.60444e-08 0) (1.07265 -5.81314e-08 0) (1.07265 -8.89593e-08 0) (1.07265 -1.07903e-07 0) (1.07258 -1.12194e-07 0) (1.05597 -1.06505e-07 0) (0.345884 8.85586e-09 0)
0.111         (0.343392 -1.40476e-08 0) (0.99657 1.17581e-07 0) (1.07276 1.02436e-07 0) (1.07327 3.81133e-08 0) (1.07327 -1.59414e-08 0) (1.07327 -5.90719e-08 0) (1.07327 -9.07764e-08 0) (1.07327 -1.10659e-07 0) (1.0732 -1.15307e-07 0) (1.05599 -1.09187e-07 0) (0.343392 8.75383e-09 0)
0.1125        (0.340955 -1.3799e-08 0) (0.995357 1.20674e-07 0) (1.07334 1.05133e-07 0) (1.07388 3.94558e-08 0) (1.07388 -1.57722e-08 0) (1.07388 -5.99228e-08 0) (1.07388 -9.25202e-08 0) (1.07388 -1.13323e-07 0) (1.07381 -1.18438e-07 0) (1.05598 -1.11869e-07 0) (0.340955 8.6423e-09 0)
0.114         (0.338573 -1.35449e-08 0) (0.994133 1.23734e-07 0) (1.07392 1.07832e-07 0) (1.07449 4.08416e-08 0) (1.07449 -1.55367e-08 0) (1.07449 -6.06841e-08 0) (1.0745 -9.4189e-08 0) (1.07449 -1.1589e-07 0) (1.07441 -1.21577e-07 0) (1.05597 -1.14549e-07 0) (0.338572 8.52241e-09 0)
0.1155        (0.336242 -1.32853e-08 0) (0.992898 1.26757e-07 0) (1.07449 1.1053e-07 0) (1.0751 4.22678e-08 0) (1.0751 -1.52338e-08 0) (1.0751 -6.13564e-08 0) (1.0751 -9.57795e-08 0) (1.0751 -1.18354e-07 0) (1.07502 -1.24715e-07 0) (1.05594 -1.17229e-07 0) (0.336242 8.39495e-09 0)
0.117         (0.333962 -1.30206e-08 0) (0.991654 1.29737e-07 0) (1.07506 1.13222e-07 0) (1.0757 4.37337e-08 0) (1.07571 -1.48606e-08 0) (1.07571 -6.19389e-08 0) (1.07571 -9.72861e-08 0) (1.07571 -1.20713e-07 0) (1.07561 -1.27838e-07 0) (1.05589 -1.19907e-07 0) (0.333962 8.26069e-09 0)
0.1185        (0.331731 -1.27511e-08 0) (0.9904 1.32669e-07 0) (1.07562 1.15902e-07 0) (1.0763 4.52352e-08 0) (1.0763 -1.44184e-08 0) (1.0763 -6.24347e-08 0) (1.0763 -9.87064e-08 0) (1.0763 -1.22969e-07 0) (1.07621 -1.30936e-07 0) (1.05584 -1.22582e-07 0) (0.331731 8.12037e-09 0)
0.12          (0.329548 -1.24769e-08 0) (0.989138 1.35548e-07 0) (1.07618 1.18569e-07 0) (1.0769 4.67727e-08 0) (1.0769 -1.39041e-08 0) (1.0769 -6.28423e-08 0) (1.0769 -1.00034e-07 0) (1.0769 -1.25121e-07 0) (1.07679 -1.33993e-07 0) (1.05577 -1.25253e-07 0) (0.329547 7.97452e-09 0)
0.1215        (0.32741 -1.21985e-08 0) (0.987867 1.38369e-07 0) (1.07673 1.21218e-07 0) (1.07749 4.83444e-08 0) (1.07749 -1.33177e-08 0) (1.07749 -6.31621e-08 0) (1.07749 -1.01264e-07 0) (1.07749 -1.27171e-07 0) (1.07738 -1.36997e-07 0) (1.05568 -1.27917e-07 0) (0.32741 7.82367e-09 0)
0.123         (0.325317 -1.1916e-08 0) (0.986588 1.41128e-07 0) (1.07728 1.23845e-07 0) (1.07808 4.99501e-08 0) (1.07808 -1.26586e-08 0) (1.07808 -6.33931e-08 0) (1.07808 -1.02393e-07 0) (1.07808 -1.29121e-07 0) (1.07796 -1.39936e-07 0) (1.05558 -1.30572e-07 0) (0.325317 7.66826e-09 0)
0.1245        (0.323267 -1.16299e-08 0) (0.985301 1.43821e-07 0) (1.07782 1.26446e-07 0) (1.07866 5.15863e-08 0) (1.07866 -1.19299e-08 0) (1.07866 -6.35373e-08 0) (1.07866 -1.0342e-07 0) (1.07866 -1.30974e-07 0) (1.07853 -1.42797e-07 0) (1.05547 -1.33214e-07 0) (0.323267 7.50876e-09 0)
0.126         (0.321259 -1.134e-08 0) (0.984007 1.46443e-07 0) (1.07836 1.2902e-07 0) (1.07924 5.32567e-08 0) (1.07924 -1.11269e-08 0) (1.07924 -6.35875e-08 0) (1.07924 -1.04336e-07 0) (1.07924 -1.32728e-07 0) (1.07911 -1.45568e-07 0) (1.05535 -1.3584e-07 0) (0.321259 7.34558e-09 0)
0.1275        (0.319291 -1.1047e-08 0) (0.982707 1.48992e-07 0) (1.07889 1.31564e-07 0) (1.07982 5.4956e-08 0) (1.07982 -1.02554e-08 0) (1.07982 -6.35469e-08 0) (1.07982 -1.05145e-07 0) (1.07982 -1.34385e-07 0) (1.07967 -1.48241e-07 0) (1.05521 -1.38444e-07 0) (0.319291 7.17912e-09 0)
0.129         (0.317363 -1.07514e-08 0) (0.9814 1.51462e-07 0) (1.07941 1.34073e-07 0) (1.08039 5.66844e-08 0) (1.08039 -9.314e-09 0) (1.08039 -6.34105e-08 0) (1.08039 -1.05839e-07 0) (1.08039 -1.35939e-07 0) (1.08024 -1.50805e-07 0) (1.05507 -1.4102e-07 0) (0.317363 7.00988e-09 0)
0.1305        (0.315473 -1.0453e-08 0) (0.980088 1.53852e-07 0) (1.07993 1.36546e-07 0) (1.08096 5.84373e-08 0) (1.08096 -8.30855e-09 0) (1.08096 -6.31829e-08 0) (1.08096 -1.06427e-07 0) (1.08096 -1.37396e-07 0) (1.0808 -1.53261e-07 0) (1.05491 -1.43567e-07 0) (0.315473 6.83679e-09 0)
0.132         (0.31362 -1.01522e-08 0) (0.97877 1.56158e-07 0) (1.08045 1.38979e-07 0) (1.08152 6.02122e-08 0) (1.08153 -7.24072e-09 0) (1.08153 -6.28628e-08 0) (1.08153 -1.06904e-07 0) (1.08153 -1.38751e-07 0) (1.08135 -1.55601e-07 0) (1.05473 -1.46078e-07 0) (0.31362 6.66177e-09 0)
0.1335        (0.311804 -9.84891e-09 0) (0.977447 1.58382e-07 0) (1.08096 1.41376e-07 0) (1.08209 6.20112e-08 0) (1.08209 -6.10713e-09 0) (1.08209 -6.24449e-08 0) (1.08209 -1.07268e-07 0) (1.08209 -1.39994e-07 0) (1.08191 -1.57821e-07 0) (1.05455 -1.48545e-07 0) (0.311803 6.48493e-09 0)
0.135         (0.310022 -9.54356e-09 0) (0.97612 1.60518e-07 0) (1.08146 1.4373e-07 0) (1.08265 6.38273e-08 0) (1.08265 -4.91495e-09 0) (1.08265 -6.19353e-08 0) (1.08265 -1.07521e-07 0) (1.08265 -1.41126e-07 0) (1.08245 -1.59921e-07 0) (1.05436 -1.50964e-07 0) (0.310022 6.3065e-09 0)
0.1365        (0.308274 -9.23744e-09 0) (0.974788 1.62564e-07 0) (1.08196 1.46038e-07 0) (1.0832 6.5652e-08 0) (1.08321 -3.67203e-09 0) (1.08321 -6.13407e-08 0) (1.08321 -1.07671e-07 0) (1.08321 -1.42147e-07 0) (1.083 -1.61903e-07 0) (1.05415 -1.53329e-07 0) (0.308274 6.12607e-09 0)
0.138         (0.306559 -8.93009e-09 0) (0.973452 1.64522e-07 0) (1.08246 1.48304e-07 0) (1.08376 6.74928e-08 0) (1.08376 -2.3688e-09 0) (1.08376 -6.06504e-08 0) (1.08376 -1.07703e-07 0) (1.08376 -1.43042e-07 0) (1.08354 -1.63758e-07 0) (1.05393 -1.5563e-07 0) (0.306559 5.94609e-09 0)
0.1395        (0.304876 -8.6217e-09 0) (0.972112 1.66391e-07 0) (1.08295 1.50526e-07 0) (1.08431 6.93417e-08 0) (1.08431 -1.01364e-09 0) (1.08431 -5.98729e-08 0) (1.08431 -1.07626e-07 0) (1.08431 -1.43814e-07 0) (1.08408 -1.65492e-07 0) (1.0537 -1.57863e-07 0) (0.304876 5.76521e-09 0)
0.141         (0.303224 -8.3124e-09 0) (0.970769 1.68171e-07 0) (1.08343 1.52703e-07 0) (1.08485 7.11962e-08 0) (1.08486 3.91081e-10 0) (1.08486 -5.90103e-08 0) (1.08486 -1.0744e-07 0) (1.08486 -1.4446e-07 0) (1.08461 -1.67105e-07 0) (1.05346 -1.60023e-07 0) (0.303224 5.58379e-09 0)
0.1425        (0.301602 -8.00241e-09 0) (0.969423 1.69864e-07 0) (1.08392 1.54835e-07 0) (1.0854 7.30525e-08 0) (1.0854 1.84152e-09 0) (1.0854 -5.80659e-08 0) (1.0854 -1.07144e-07 0) (1.0854 -1.44978e-07 0) (1.08514 -1.68597e-07 0) (1.05321 -1.62105e-07 0) (0.301602 5.40207e-09 0)
0.144         (0.30001 -7.69189e-09 0) (0.968074 1.7147e-07 0) (1.08439 1.56919e-07 0) (1.08594 7.49068e-08 0) (1.08594 3.33403e-09 0) (1.08594 -5.70426e-08 0) (1.08594 -1.06742e-07 0) (1.08594 -1.4537e-07 0) (1.08567 -1.69969e-07 0) (1.05296 -1.64105e-07 0) (0.30001 5.22026e-09 0)
0.1455        (0.298447 -7.38099e-09 0) (0.966723 1.72991e-07 0) (1.08486 1.58957e-07 0) (1.08648 7.67558e-08 0) (1.08648 4.86492e-09 0) (1.08648 -5.59432e-08 0) (1.08648 -1.06232e-07 0) (1.08648 -1.45634e-07 0) (1.0862 -1.71221e-07 0) (1.05269 -1.66018e-07 0) (0.298447 5.03863e-09 0)
0.147         (0.296911 -7.06992e-09 0) (0.965369 1.74429e-07 0) (1.08533 1.60946e-07 0) (1.08701 7.85947e-08 0) (1.08702 6.42923e-09 0) (1.08702 -5.47714e-08 0) (1.08702 -1.05618e-07 0) (1.08702 -1.45773e-07 0) (1.08672 -1.72352e-07 0) (1.05241 -1.67841e-07 0) (0.296911 4.8574e-09 0)
0.1485        (0.295402 -6.7588e-09 0) (0.964014 1.75785e-07 0) (1.08579 1.62884e-07 0) (1.08754 8.0419e-08 0) (1.08755 8.02268e-09 0) (1.08755 -5.35301e-08 0) (1.08755 -1.04901e-07 0) (1.08755 -1.45788e-07 0) (1.08723 -1.73363e-07 0) (1.05212 -1.69572e-07 0) (0.295402 4.67676e-09 0)
0.15          (0.29392 -6.44775e-09 0) (0.962657 1.77064e-07 0) (1.08625 1.64768e-07 0) (1.08807 8.22243e-08 0) (1.08808 9.64078e-09 0) (1.08808 -5.22223e-08 0) (1.08808 -1.04083e-07 0) (1.08808 -1.4568e-07 0) (1.08775 -1.74253e-07 0) (1.05182 -1.71209e-07 0) (0.293919 4.49695e-09 0)
0.1515        (0.292463 -6.13707e-09 0) (0.961299 1.78266e-07 0) (1.0867 1.66595e-07 0) (1.0886 8.4003e-08 0) (1.08861 1.12765e-08 0) (1.08861 -5.08531e-08 0) (1.08861 -1.03167e-07 0) (1.08861 -1.45453e-07 0) (1.08826 -1.75022e-07 0) (1.05151 -1.7275e-07 0) (0.292463 4.318e-09 0)
0.153         (0.291031 -5.82676e-09 0) (0.959939 1.79394e-07 0) (1.08715 1.6836e-07 0) (1.08913 8.57513e-08 0) (1.08913 1.29272e-08 0) (1.08913 -4.94237e-08 0) (1.08913 -1.02154e-07 0) (1.08913 -1.45105e-07 0) (1.08877 -1.75668e-07 0) (1.05119 -1.74195e-07 0) (0.291031 4.14025e-09 0)
0.1545        (0.289623 -5.51713e-09 0) (0.958579 1.80451e-07 0) (1.08759 1.70056e-07 0) (1.08965 8.74608e-08 0) (1.08966 1.45854e-08 0) (1.08966 -4.79397e-08 0) (1.08966 -1.01047e-07 0) (1.08966 -1.44641e-07 0) (1.08927 -1.76191e-07 0) (1.05086 -1.75543e-07 0) (0.289623 3.96374e-09 0)