# Probe 0 (2.8 0 0.005)
# Probe 1 (2.8 0.01 0.005)
# Probe 2 (2.8 0.02 0.005)
# Probe 3 (2.8 0.03 0.005)
# Probe 4 (2.8 0.04 0.005)
# Probe 5 (2.8 0.05 0.005)
# Probe 6 (2.8 0.06 0.005)
# Probe 7 (2.8 0.07 0.005)
# Probe 8 (2.8 0.08 0.005)
# Probe 9 (2.8 0.09 0.005)
# Probe 10 (2.8 0.1 0.005)
# Time        0             1             2             3             4             5             6             7             8             9             10           
0             (0 0 0)       (0 0 0)       (0 0 0)       (0 0 0)       (0 0 0)       (0 0 0)       (0 0 0)       (0 0 0)       (0 0 0)       (0 0 0)       (0 0 0)      
0.0015        (0.918709 3.73884e-07 0) (1.00654 5.74375e-07 0) (1.00654 5.04371e-07 0) (1.00654 2.55363e-07 0) (1.00654 -2.46621e-08 0) (1.00654 -3.07147e-07 0) (1.00654 -5.67006e-07 0) (1.00654 -7.7438e-07 0) (1.00654 -8.86553e-07 0) (1.00654 -3.16049e-06 0) (0.918706 -4.95249e-06 0)
0.003         (0.83472 -4.95587e-07 0) (1.01202 1.88079e-08 0) (1.01236 3.16443e-07 0) (1.01236 2.70945e-07 0) (1.01236 3.21243e-07 0) (1.01236 2.76078e-07 0) (1.01236 1.79569e-07 0) (1.01236 -8.27968e-08 0) (1.01236 -2.26017e-07 0) (1.01235 -1.0877e-06 0) (0.834719 -1.65533e-07 0)
0.0045        (0.766202 -1.47807e-07 0) (1.01712 2.0558e-07 0) (1.01819 3.9612e-07 0) (1.01819 2.94638e-07 0) (1.01819 7.0787e-08 0) (1.01819 -9.22953e-08 0) (1.01819 -2.30389e-07 0) (1.01819 -3.02293e-07 0) (1.01819 -4.05131e-07 0) (1.01814 -1.01025e-06 0) (0.7662 -4.50281e-07 0)
0.006         (0.706099 -2.39641e-08 0) (1.02114 2.61058e-07 0) (1.02344 3.82274e-07 0) (1.02344 2.76074e-07 0) (1.02344 6.57651e-08 0) (1.02344 3.862e-09 0) (1.02344 -1.95373e-07 0) (1.02344 -2.94396e-07 0) (1.02344 -3.86097e-07 0) (1.0233 -7.39975e-07 0) (0.706097 -3.25229e-07 0)
0.0075        (0.65394 2.61575e-08 0) (1.02425 2.93103e-07 0) (1.02834 3.57356e-07 0) (1.02834 2.51582e-07 0) (1.02834 8.09532e-08 0) (1.02834 2.06989e-08 0) (1.02834 -1.51518e-07 0) (1.02834 -2.69752e-07 0) (1.02834 -3.64744e-07 0) (1.02805 -5.74685e-07 0) (0.653939 -2.2796e-07 0)
0.009         (0.608681 4.14393e-08 0) (1.02642 3.05198e-07 0) (1.03289 3.30304e-07 0) (1.03289 2.28567e-07 0) (1.03289 8.87457e-08 0) (1.03289 -3.89072e-09 0) (1.03289 -1.24401e-07 0) (1.03289 -2.41467e-07 0) (1.03289 -3.37348e-07 0) (1.03235 -4.67436e-07 0) (0.60868 -1.54458e-07 0)
0.0105        (0.569334 4.25011e-08 0) (1.02768 3.05165e-07 0) (1.03714 3.05621e-07 0) (1.03714 2.09036e-07 0) (1.03714 8.96372e-08 0) (1.03714 -1.02904e-08 0) (1.03714 -1.08175e-07 0) (1.03714 -2.17711e-07 0) (1.03714 -3.11397e-07 0) (1.03624 -4.0022e-07 0) (0.569333 -1.03338e-07 0)
0.012         (0.535018 3.76939e-08 0) (1.0281 2.97214e-07 0) (1.04112 2.83235e-07 0) (1.04113 1.92061e-07 0) (1.04113 8.68384e-08 0) (1.04113 -1.03872e-08 0) (1.04113 -9.72891e-08 0) (1.04113 -1.98172e-07 0) (1.04113 -2.87747e-07 0) (1.03973 -3.56288e-07 0) (0.535017 -6.80886e-08 0)
0.0135        (0.504979 3.11746e-08 0) (1.02772 2.85045e-07 0) (1.04486 2.63266e-07 0) (1.04488 1.77339e-07 0) (1.04488 8.25575e-08 0) (1.04488 -8.65342e-09 0) (1.04488 -8.92219e-08 0) (1.04488 -1.82038e-07 0) (1.04488 -2.66816e-07 0) (1.04284 -3.25824e-07 0) (0.504978 -4.44075e-08 0)
0.015         (0.47858 2.70391e-08 0) (1.02662 2.73484e-07 0) (1.0484 2.47276e-07 0) (1.04843 1.65822e-07 0) (1.04843 7.86774e-08 0) (1.04843 -6.53554e-09 0) (1.04843 -8.30761e-08 0) (1.04843 -1.69258e-07 0) (1.04843 -2.49636e-07 0) (1.04559 -3.07516e-07 0) (0.47858 -3.61664e-08 0)
0.0165        (0.455287 2.36032e-08 0) (1.02487 2.61575e-07 0) (1.05175 2.33317e-07 0) (1.0518 1.55802e-07 0) (1.0518 7.46785e-08 0) (1.0518 -5.04044e-09 0) (1.0518 -7.82668e-08 0) (1.0518 -1.58788e-07 0) (1.05179 -2.35014e-07 0) (1.04797 -2.92914e-07 0) (0.455286 -3.16978e-08 0)
0.018         (0.434649 2.05478e-08 0) (1.02254 2.49649e-07 0) (1.05493 2.21063e-07 0) (1.055 1.47085e-07 0) (1.055 7.08873e-08 0) (1.055 -4.05865e-09 0) (1.055 -7.43354e-08 0) (1.055 -1.50093e-07 0) (1.055 -2.2258e-07 0) (1.05002 -2.79792e-07 0) (0.434649 -2.77935e-08 0)
0.0195        (0.416288 1.77291e-08 0) (1.01968 2.3784e-07 0) (1.05797 2.10169e-07 0) (1.05807 1.39438e-07 0) (1.05807 6.74423e-08 0) (1.05807 -3.33394e-09 0) (1.05807 -7.08142e-08 0) (1.05807 -1.42458e-07 0) (1.05806 -2.11555e-07 0) (1.05175 -2.67149e-07 0) (0.416288 -2.35816e-08 0)
0.021         (0.399884 1.51905e-08 0) (1.01637 2.26346e-07 0) (1.06087 2.00438e-07 0) (1.06102 1.3268e-07 0) (1.06102 6.43195e-08 0) (1.06102 -2.83034e-09 0) (1.06102 -6.76526e-08 0) (1.06102 -1.35711e-07 0) (1.061 -2.01746e-07 0) (1.05316 -2.55091e-07 0) (0.399884 -1.93629e-08 0)
0.0225        (0.385169 1.29475e-08 0) (1.01266 2.1527e-07 0) (1.06365 1.91705e-07 0) (1.06384 1.26674e-07 0) (1.06384 6.14962e-08 0) (1.06384 -2.48892e-09 0) (1.06384 -6.47946e-08 0) (1.06384 -1.29696e-07 0) (1.06382 -1.9296e-07 0) (1.05427 -2.43716e-07 0) (0.385168 -1.54254e-08 0)
0.024         (0.371914 1.15009e-08 0) (1.00861 2.05244e-07 0) (1.06631 1.8421e-07 0) (1.06657 1.2155e-07 0) (1.06657 5.90486e-08 0) (1.06657 -2.29094e-09 0) (1.06657 -6.23515e-08 0) (1.06657 -1.24547e-07 0) (1.06654 -1.854e-07 0) (1.0551 -2.34155e-07 0) (0.371914 -1.35541e-08 0)
0.0255        (0.359928 1.03604e-08 0) (1.00426 1.95805e-07 0) (1.06886 1.77508e-07 0) (1.06921 1.16985e-07 0) (1.06921 5.68197e-08 0) (1.06921 -2.2161e-09 0) (1.06921 -6.02276e-08 0) (1.06921 -1.20047e-07 0) (1.06916 -1.78739e-07 0) (1.05566 -2.25333e-07 0) (0.359928 -1.21368e-08 0)
0.027         (0.349045 9.35204e-09 0) (0.999656 1.8681e-07 0) (1.07131 1.71423e-07 0) (1.07176 1.12876e-07 0) (1.07177 5.48058e-08 0) (1.07177 -2.16566e-09 0) (1.07177 -5.82781e-08 0) (1.07177 -1.1596e-07 0) (1.0717 -1.72685e-07 0) (1.05596 -2.16884e-07 0) (0.349045 -1.07172e-08 0)
0.0285        (0.339128 8.43508e-09 0) (0.994847 1.78228e-07 0) (1.07367 1.65852e-07 0) (1.07424 1.09144e-07 0) (1.07424 5.29716e-08 0) (1.07424 -2.12937e-09 0) (1.07424 -5.64789e-08 0) (1.07424 -1.12217e-07 0) (1.07416 -1.67138e-07 0) (1.05601 -2.08801e-07 0) (0.339128 -9.29832e-09 0)
0.03          (0.330057 7.60152e-09 0) (0.989865 1.70051e-07 0) (1.07594 1.6072e-07 0) (1.07665 1.05732e-07 0) (1.07666 5.12922e-08 0) (1.07666 -2.10167e-09 0) (1.07666 -5.48126e-08 0) (1.07666 -1.08769e-07 0) (1.07655 -1.62026e-07 0) (1.05584 -2.01107e-07 0) (0.330057 -7.95514e-09 0)
0.0315        (0.321729 6.85079e-09 0) (0.984742 1.62274e-07 0) (1.07812 1.55969e-07 0) (1.079 1.02598e-07 0) (1.079 4.9746e-08 0) (1.079 -2.08178e-09 0) (1.079 -5.32683e-08 0) (1.079 -1.05582e-07 0) (1.07886 -1.57296e-07 0) (1.05545 -1.93813e-07 0) (0.321729 -6.74589e-09 0)
0.033         (0.314059 6.18106e-09 0) (0.979509 1.54892e-07 0) (1.08022 1.51551e-07 0) (1.08129 9.97036e-08 0) (1.08129 4.83159e-08 0) (1.08129 -2.06876e-09 0) (1.08129 -5.18353e-08 0) (1.08129 -1.02626e-07 0) (1.08112 -1.52904e-07 0) (1.05486 -1.86911e-07 0) (0.314059 -5.69585e-09 0)
0.0345        (0.30697 5.58788e-09 0) (0.974191 1.47894e-07 0) (1.08224 1.47427e-07 0) (1.08353 9.70209e-08 0) (1.08353 4.69878e-08 0) (1.08353 -2.06159e-09 0) (1.08353 -5.05031e-08 0) (1.08353 -9.98766e-08 0) (1.08331 -1.48811e-07 0) (1.05408 -1.80376e-07 0) (0.30697 -4.80558e-09 0)
0.036         (0.300398 5.06483e-09 0) (0.968811 1.41269e-07 0) (1.08418 1.43563e-07 0) (1.08571 9.45244e-08 0) (1.08572 4.57499e-08 0) (1.08572 -2.05911e-09 0) (1.08572 -4.92619e-08 0) (1.08572 -9.73117e-08 0) (1.08545 -1.44985e-07 0) (1.05313 -1.74182e-07 0) (0.300398 -4.06161e-09 0)
0.0375        (0.294287 4.60458e-09 0) (0.963389 1.35001e-07 0) (1.08605 1.39928e-07 0) (1.08785 9.21932e-08 0) (1.08786 4.45924e-08 0) (1.08786 -2.06019e-09 0) (1.08786 -4.81025e-08 0) (1.08786 -9.4912e-08 0) (1.08753 -1.41396e-07 0) (1.05201 -1.683e-07 0) (0.294287 -3.44471e-09 0)
0.039         (0.288588 4.19964e-09 0) (0.957943 1.29073e-07 0) (1.08784 1.36498e-07 0) (1.08995 9.0009e-08 0) (1.08996 4.35067e-08 0) (1.08996 -2.06383e-09 0) (1.08996 -4.70166e-08 0) (1.08996 -9.26605e-08 0) (1.08956 -1.38019e-07 0) (1.05074 -1.62706e-07 0) (0.288588 -2.93481e-09 0)
0.0405        (0.28326 3.94199e-09 0) (0.952488 1.23598e-07 0) (1.08956 1.33336e-07 0) (1.09201 8.80081e-08 0) (1.09202 4.25032e-08 0) (1.09202 -2.08451e-09 0) (1.09202 -4.60413e-08 0) (1.09202 -9.06115e-08 0) (1.09154 -1.34922e-07 0) (1.04933 -1.57631e-07 0) (0.28326 -2.83959e-09 0)
0.042         (0.278265 3.7372e-09 0) (0.947037 1.18456e-07 0) (1.09121 1.30358e-07 0) (1.09402 8.61383e-08 0) (1.09404 4.15632e-08 0) (1.09404 -2.10825e-09 0) (1.09404 -4.51376e-08 0) (1.09404 -8.87051e-08 0) (1.09347 -1.32027e-07 0) (1.04779 -1.52813e-07 0) (0.278265 -2.82137e-09 0)
0.0435        (0.273571 3.54786e-09 0) (0.941603 1.13595e-07 0) (1.09279 1.27525e-07 0) (1.09601 8.43752e-08 0) (1.09603 4.0679e-08 0) (1.09603 -2.12619e-09 0) (1.09603 -4.42802e-08 0) (1.09603 -8.69e-08 0) (1.09535 -1.29277e-07 0) (1.04613 -1.48161e-07 0) (0.273571 -2.7663e-09 0)
0.045         (0.26915 3.366e-09 0) (0.936194 1.08991e-07 0) (1.0943 1.24819e-07 0) (1.09796 8.27052e-08 0) (1.09798 3.98435e-08 0) (1.09798 -2.13938e-09 0) (1.09798 -4.34637e-08 0) (1.09798 -8.51847e-08 0) (1.09719 -1.26657e-07 0) (1.04437 -1.4367e-07 0) (0.26915 -2.6697e-09 0)
0.0465        (0.264977 3.17394e-09 0) (0.93082 1.04618e-07 0) (1.09574 1.22254e-07 0) (1.09987 8.11827e-08 0) (1.09991 3.91496e-08 0) (1.09991 -2.02159e-09 0) (1.09991 -4.25325e-08 0) (1.0999 -8.33797e-08 0) (1.09899 -1.23977e-07 0) (1.0425 -1.39183e-07 0) (0.264977 -2.46007e-09 0)
0.048         (0.26103 3.01848e-09 0) (0.925489 1.0048e-07 0) (1.09712 1.19752e-07 0) (1.10176 7.96576e-08 0) (1.1018 3.83807e-08 0) (1.1018 -2.04596e-09 0) (1.1018 -4.1806e-08 0) (1.10179 -8.18388e-08 0) (1.10074 -1.21591e-07 0) (1.04054 -1.3504e-07 0) (0.26103 -2.35681e-09 0)
0.0495        (0.25729 2.86369e-09 0) (0.920206 9.65469e-08 0) (1.09844 1.17343e-07 0) (1.10362 7.82083e-08 0) (1.10367 3.76616e-08 0) (1.10367 -2.04786e-09 0) (1.10367 -4.10862e-08 0) (1.10366 -8.03377e-08 0) (1.10245 -1.19271e-07 0) (1.03849 -1.3102e-07 0) (0.25729 -2.22393e-09 0)
0.051         (0.253739 2.71821e-09 0) (0.914976 9.2818e-08 0) (1.09969 1.15018e-07 0) (1.10545 7.68168e-08 0) (1.10551 3.69674e-08 0) (1.10551 -2.05777e-09 0) (1.10551 -4.04073e-08 0) (1.1055 -7.89132e-08 0) (1.10411 -1.17051e-07 0) (1.03638 -1.27166e-07 0) (0.253739 -2.10108e-09 0)
0.0525        (0.250362 2.57936e-09 0) (0.909804 8.92804e-08 0) (1.10088 1.12772e-07 0) (1.10725 7.54853e-08 0) (1.10732 3.63058e-08 0) (1.10732 -2.06301e-09 0) (1.10732 -3.97523e-08 0) (1.10731 -7.75445e-08 0) (1.10574 -1.14908e-07 0) (1.03419 -1.23455e-07 0) (0.250362 -1.98023e-09 0)
0.054         (0.247146 2.44829e-09 0) (0.904693 8.5924e-08 0) (1.10201 1.106e-07 0) (1.10903 7.42074e-08 0) (1.10911 3.56716e-08 0) (1.10911 -2.06772e-09 0) (1.10911 -3.91239e-08 0) (1.1091 -7.62325e-08 0) (1.10733 -1.12841e-07 0) (1.03194 -1.19888e-07 0) (0.247146 -1.86699e-09 0)
0.0555        (0.244078 2.32488e-09 0) (0.899646 8.27379e-08 0) (1.10307 1.08497e-07 0) (1.11079 7.29793e-08 0) (1.11088 3.50632e-08 0) (1.11088 -2.07139e-09 0) (1.11088 -3.85195e-08 0) (1.11086 -7.49725e-08 0) (1.10888 -1.10845e-07 0) (1.02964 -1.16456e-07 0) (0.244078 -1.76132e-09 0)
0.057         (0.241147 2.20895e-09 0) (0.894666 7.97117e-08 0) (1.10408 1.06457e-07 0) (1.11252 7.17969e-08 0) (1.11263 3.44781e-08 0) (1.11263 -2.07474e-09 0) (1.11263 -3.79381e-08 0) (1.11261 -7.37614e-08 0) (1.11038 -1.08914e-07 0) (1.02729 -1.13152e-07 0) (0.241147 -1.66337e-09 0)
0.0585        (0.238343 2.1e-09 0) (0.889754 7.68354e-08 0) (1.10504 1.04476e-07 0) (1.11422 7.06566e-08 0) (1.11435 3.39143e-08 0) (1.11436 -2.07802e-09 0) (1.11436 -3.73782e-08 0) (1.11433 -7.2596e-08 0) (1.11185 -1.07044e-07 0) (1.0249 -1.0997e-07 0) (0.238343 -1.57234e-09 0)
0.06          (0.235657 1.99777e-09 0) (0.884912 7.41004e-08 0) (1.10593 1.02551e-07 0) (1.11591 6.95559e-08 0) (1.11606 3.33706e-08 0) (1.11606 -2.08112e-09 0) (1.11606 -3.68383e-08 0) (1.11603 -7.14735e-08 0) (1.11329 -1.05231e-07 0) (1.02246 -1.06904e-07 0) (0.235658 -1.4874e-09 0)
0.0615        (0.233082 1.85533e-09 0) (0.880141 7.1429e-08 0) (1.10677 1.00635e-07 0) (1.11757 6.84713e-08 0) (1.11775 3.28473e-08 0) (1.11775 -2.06265e-09 0) (1.11775 -3.62796e-08 0) (1.11771 -7.03417e-08 0) (1.11468 -1.03414e-07 0) (1.02 -1.0381e-07 0) (0.233082 -1.24764e-09 0)
0.063         (0.23061 1.75461e-09 0) (0.875441 6.89295e-08 0) (1.10755 9.87899e-08 0) (1.11922 6.74219e-08 0) (1.11942 3.23232e-08 0) (1.11942 -2.07738e-09 0) (1.11942 -3.57807e-08 0) (1.11938 -6.9292e-08 0) (1.11604 -1.01691e-07 0) (1.0175 -1.00945e-07 0) (0.23061 -1.15425e-09 0)
0.0645        (0.228233 1.64563e-09 0) (0.870812 6.66164e-08 0) (1.10829 9.72374e-08 0) (1.12084 6.67915e-08 0) (1.12107 3.22994e-08 0) (1.12107 -1.56353e-09 0) (1.12107 -3.47771e-08 0) (1.12102 -6.78098e-08 0) (1.11736 -9.96432e-08 0) (1.01499 -9.78821e-08 0) (0.228233 -9.06869e-10 0)
0.066         (0.225947 1.53635e-09 0) (0.866255 6.42774e-08 0) (1.10897 9.54105e-08 0) (1.12244 6.5736e-08 0) (1.1227 3.17483e-08 0) (1.12271 -1.62339e-09 0) (1.12271 -3.43397e-08 0) (1.12265 -6.68405e-08 0) (1.11864 -9.8004e-08 0) (1.01245 -9.51535e-08 0) (0.225947 -7.63754e-10 0)
0.0675        (0.223745 1.43512e-09 0) (0.86177 6.2055e-08 0) (1.1096 9.36611e-08 0) (1.12403 6.47636e-08 0) (1.12432 3.12795e-08 0) (1.12433 -1.60963e-09 0) (1.12433 -3.38438e-08 0) (1.12426 -6.58349e-08 0) (1.11989 -9.63513e-08 0) (1.00989 -9.24872e-08 0) (0.223746 -6.267e-10 0)
0.069         (0.221623 1.34113e-09 0) (0.857355 5.99202e-08 0) (1.11018 9.19239e-08 0) (1.12559 6.3779e-08 0) (1.12593 3.07789e-08 0) (1.12593 -1.64301e-09 0) (1.12593 -3.34065e-08 0) (1.12585 -6.48972e-08 0) (1.1211 -9.47673e-08 0) (1.00732 -8.99315e-08 0) (0.221623 -5.15141e-10 0)
0.0705        (0.219576 1.25673e-09 0) (0.853012 5.7888e-08 0) (1.11071 9.0238e-08 0) (1.12714 6.28353e-08 0) (1.12751 3.0308e-08 0) (1.12752 -1.6603e-09 0) (1.12752 -3.29687e-08 0) (1.12743 -6.39771e-08 0) (1.12228 -9.32157e-08 0) (1.00474 -8.74669e-08 0) (0.219576 -4.23518e-10 0)
0.072         (0.217599 1.1816e-09 0) (0.848739 5.59491e-08 0) (1.11119 8.8589e-08 0) (1.12867 6.19117e-08 0) (1.12909 2.98429e-08 0) (1.12909 -1.68609e-09 0) (1.12909 -3.25532e-08 0) (1.12899 -6.30936e-08 0) (1.12342 -9.17105e-08 0) (1.00215 -8.50991e-08 0) (0.217599 -3.54285e-10 0)
0.0735        (0.215689 1.11442e-09 0) (0.844535 5.41007e-08 0) (1.11163 8.69821e-08 0) (1.13018 6.10166e-08 0) (1.13065 2.93947e-08 0) (1.13065 -1.70763e-09 0) (1.13065 -3.2147e-08 0) (1.13054 -6.22345e-08 0) (1.12453 -9.02414e-08 0) (0.999551 -8.28164e-08 0) (0.215689 -2.99568e-10 0)
0.075         (0.213842 1.05411e-09 0) (0.840399 5.2337e-08 0) (1.11203 8.54139e-08 0) (1.13167 6.0146e-08 0) (1.13219 2.89593e-08 0) (1.1322 -1.72857e-09 0) (1.1322 -3.1753e-08 0) (1.13207 -6.14014e-08 0) (1.1256 -8.88092e-08 0) (0.996953 -8.06156e-08 0) (0.213842 -2.5624e-10 0)
0.0765        (0.212054 9.99502e-10 0) (0.836332 5.06531e-08 0) (1.11238 8.38832e-08 0) (1.13315 5.92993e-08 0) (1.13372 2.85374e-08 0) (1.13373 -1.74753e-09 0) (1.13373 -3.1369e-08 0) (1.13358 -6.05915e-08 0) (1.12664 -8.74112e-08 0) (0.994353 -7.84914e-08 0) (0.212054 -2.20484e-10 0)
0.078         (0.210323 9.49713e-10 0) (0.832331 4.90438e-08 0) (1.11269 8.23877e-08 0) (1.13461 5.84741e-08 0) (1.13524 2.81268e-08 0) (1.13525 -1.76587e-09 0) (1.13525 -3.09957e-08 0) (1.13509 -5.98043e-08 0) (1.12765 -8.60461e-08 0) (0.991754 -7.64403e-08 0) (0.210323 -1.90454e-10 0)
0.0795        (0.208645 9.04179e-10 0) (0.828395 4.75055e-08 0) (1.11296 8.09271e-08 0) (1.13605 5.76707e-08 0) (1.13675 2.77288e-08 0) (1.13676 -1.78191e-09 0) (1.13676 -3.06309e-08 0) (1.13658 -5.90376e-08 0) (1.12863 -8.4712e-08 0) (0.989158 -7.44591e-08 0) (0.208645 -1.64787e-10 0)
0.081         (0.207018 8.62234e-10 0) (0.824525 4.60337e-08 0) (1.11318 7.94992e-08 0) (1.13747 5.68869e-08 0) (1.13825 2.73414e-08 0) (1.13826 -1.79694e-09 0) (1.13826 -3.02752e-08 0) (1.13805 -5.82907e-08 0) (1.12957 -8.34077e-08 0) (0.986567 -7.25447e-08 0) (0.207019 -1.42456e-10 0)
0.0825        (0.20544 8.23361e-10 0) (0.820718 4.46243e-08 0) (1.11337 7.81024e-08 0) (1.13888 5.6121e-08 0) (1.13973 2.69635e-08 0) (1.13974 -1.81184e-09 0) (1.13974 -2.99289e-08 0) (1.13951 -5.75635e-08 0) (1.13048 -8.21325e-08 0) (0.983981 -7.06946e-08 0) (0.20544 -1.22748e-10 0)
0.084         (0.203908 7.87414e-10 0) (0.816973 4.3275e-08 0) (1.11353 7.67374e-08 0) (1.14027 5.53749e-08 0) (1.1412 2.65978e-08 0) (1.14122 -1.8232e-09 0) (1.14121 -2.95883e-08 0) (1.14096 -5.6852e-08 0) (1.13136 -8.08834e-08 0) (0.981404 -6.89053e-08 0) (0.203908 -1.05264e-10 0)
0.0855        (0.202419 7.57453e-10 0) (0.81329 4.19874e-08 0) (1.11364 7.5405e-08 0) (1.14165 5.46458e-08 0) (1.14266 2.62387e-08 0) (1.14268 -1.83886e-09 0) (1.14268 -2.92627e-08 0) (1.14239 -5.61662e-08 0) (1.13221 -7.96705e-08 0) (0.978834 -6.71902e-08 0) (0.20242 -1.01967e-10 0)
0.087         (0.200973 7.29785e-10 0) (0.809666 4.07546e-08 0) (1.11372 7.41041e-08 0) (1.14301 5.39367e-08 0) (1.14411 2.58932e-08 0) (1.14413 -1.84847e-09 0) (1.14413 -2.89392e-08 0) (1.14382 -5.54914e-08 0) (1.13303 -7.84789e-08 0) (0.976275 -6.5528e-08 0) (0.200973 -9.8475e-11 0)
0.0885        (0.199566 7.03318e-10 0) (0.806102 3.9571e-08 0) (1.11377 7.28293e-08 0) (1.14435 5.32412e-08 0) (1.14555 2.55544e-08 0) (1.14557 -1.85894e-09 0) (1.14557 -2.8624e-08 0) (1.14523 -5.48326e-08 0) (1.13382 -7.73121e-08 0) (0.973726 -6.39182e-08 0) (0.199566 -9.2947e-11 0)
0.09          (0.198198 6.77955e-10 0) (0.802596 3.84344e-08 0) (1.11378 7.1581e-08 0) (1.14568 5.25604e-08 0) (1.14698 2.52243e-08 0) (1.14701 -1.8677e-09 0) (1.147 -2.83144e-08 0) (1.14662 -5.41867e-08 0) (1.13458 -7.61674e-08 0) (0.97119 -6.23582e-08 0) (0.198198 -8.57156e-11 0)
0.0915        (0.196866 6.53554e-10 0) (0.799146 3.73421e-08 0) (1.11376 7.0358e-08 0) (1.147 5.18931e-08 0) (1.1484 2.49019e-08 0) (1.14843 -1.8756e-09 0) (1.14842 -2.80105e-08 0) (1.14801 -5.35533e-08 0) (1.13532 -7.50444e-08 0) (0.968666 -6.08468e-08 0) (0.196866 -7.73623e-11 0)
0.093         (0.195569 6.3006e-10 0) (0.795752 3.62916e-08 0) (1.11371 6.91593e-08 0) (1.14829 5.12386e-08 0) (1.14981 2.45867e-08 0) (1.14984 -1.88263e-09 0) (1.14983 -2.77122e-08 0) (1.14938 -5.29317e-08 0) (1.13602 -7.39419e-08 0) (0.966156 -5.93822e-08 0) (0.195569 -6.83614e-11 0)
0.0945        (0.194305 6.07584e-10 0) (0.792413 3.52812e-08 0) (1.11363 6.79847e-08 0) (1.14957 5.05967e-08 0) (1.15121 2.4279e-08 0) (1.15124 -1.88844e-09 0) (1.15124 -2.74187e-08 0) (1.15074 -5.23208e-08 0) (1.13669 -7.28592e-08 0) (0.96366 -5.79632e-08 0) (0.194305 -5.94817e-11 0)
0.096         (0.193074 5.85998e-10 0) (0.789126 3.43086e-08 0) (1.11352 6.68328e-08 0) (1.15084 4.99661e-08 0) (1.1526 2.39775e-08 0) (1.15264 -1.89397e-09 0) (1.15263 -2.71306e-08 0) (1.15209 -5.17206e-08 0) (1.13734 -7.17958e-08 0) (0.961179 -5.65881e-08 0) (0.193074 -5.07443e-11 0)
0.0975        (0.191873 5.65407e-10 0) (0.785892 3.33725e-08 0) (1.11339 6.57039e-08 0) (1.15209 4.93475e-08 0) (1.15398 2.36835e-08 0) (1.15402 -1.89775e-09 0) (1.15401 -2.68463e-08 0) (1.15343 -5.11294e-08 0) (1.13796 -7.07503e-08 0) (0.958714 -5.5255e-08 0) (0.191873 -4.24167e-11 0)
0.099         (0.190702 5.45589e-10 0) (0.78271 3.24703e-08 0) (1.11322 6.45961e-08 0) (1.15333 4.87385e-08 0) (1.15535 2.33945e-08 0) (1.1554 -1.90191e-09 0) (1.15539 -2.65673e-08 0) (1.15476 -5.0548e-08 0) (1.13856 -6.97228e-08 0) (0.956264 -5.39625e-08 0) (0.190702 -3.43071e-11 0)
0.1005        (0.189559 5.2667e-10 0) (0.779577 3.16011e-08 0) (1.11303 6.35099e-08 0) (1.15455 4.81404e-08 0) (1.15672 2.31124e-08 0) (1.15677 -1.90447e-09 0) (1.15676 -2.62917e-08 0) (1.15607 -4.99744e-08 0) (1.13913 -6.87119e-08 0) (0.953831 -5.27088e-08 0) (0.189559 -2.65859e-11 0)
0.102         (0.188443 5.08396e-10 0) (0.776493 3.07626e-08 0) (1.11282 6.24435e-08 0) (1.15576 4.7551e-08 0) (1.15807 2.28349e-08 0) (1.15813 -1.90742e-09 0) (1.15812 -2.60211e-08 0) (1.15738 -4.94097e-08 0) (1.13967 -6.77178e-08 0) (0.951415 -5.14927e-08 0) (0.188443 -1.88722e-11 0)
0.1035        (0.187354 4.90854e-10 0) (0.773458 2.99537e-08 0) (1.11258 6.1397e-08 0) (1.15695 4.69709e-08 0) (1.15942 2.25629e-08 0) (1.15948 -1.90946e-09 0) (1.15947 -2.57539e-08 0) (1.15867 -4.88523e-08 0) (1.14019 -6.67391e-08 0) (0.949016 -5.03122e-08 0) (0.187354 -1.13632e-11 0)
0.105         (0.186289 4.73961e-10 0) (0.770469 2.91729e-08 0) (1.11232 6.03693e-08 0) (1.15813 4.63985e-08 0) (1.16076 2.22949e-08 0) (1.16083 -1.91201e-09 0) (1.16081 -2.54913e-08 0) (1.15995 -4.83031e-08 0) (1.14069 -6.57764e-08 0) (0.946635 -4.91667e-08 0) (0.18629 -4.10698e-12 0)
0.1065        (0.185249 4.57712e-10 0) (0.767526 2.84189e-08 0) (1.11203 5.93601e-08 0) (1.15929 4.58341e-08 0) (1.16209 2.20317e-08 0) (1.16217 -1.91398e-09 0) (1.16215 -2.52321e-08 0) (1.16122 -4.77608e-08 0) (1.14116 -6.4828e-08 0) (0.944271 -4.80542e-08 0) (0.18525 2.99242e-12 0)
0.108         (0.184233 4.42084e-10 0) (0.764629 2.76903e-08 0) (1.11172 5.83686e-08 0) (1.16044 4.52765e-08 0) (1.16341 2.17719e-08 0) (1.1635 -1.91654e-09 0) (1.16347 -2.49772e-08 0) (1.16248 -4.72263e-08 0) (1.14161 -6.38946e-08 0) (0.941926 -4.69742e-08 0) (0.184233 9.74837e-12 0)
0.1095        (0.183239 4.27115e-10 0) (0.761775 2.69864e-08 0) (1.11139 5.73947e-08 0) (1.16158 4.4726e-08 0) (1.16472 2.15159e-08 0) (1.16482 -1.9189e-09 0) (1.16479 -2.47258e-08 0) (1.16373 -4.66987e-08 0) (1.14203 -6.29752e-08 0) (0.939599 -4.59249e-08 0) (0.183239 1.61041e-11 0)
0.111         (0.182266 4.12816e-10 0) (0.758965 2.63058e-08 0) (1.11105 5.64374e-08 0) (1.1627 4.41815e-08 0) (1.16603 2.12626e-08 0) (1.16614 -1.92207e-09 0) (1.16611 -2.44787e-08 0) (1.16497 -4.61786e-08 0) (1.14243 -6.20701e-08 0) (0.93729 -4.4906e-08 0) (0.182267 2.17891e-11 0)
0.1125        (0.181315 3.99277e-10 0) (0.756197 2.56478e-08 0) (1.11068 5.54969e-08 0) (1.16381 4.36432e-08 0) (1.16733 2.10125e-08 0) (1.16744 -1.92538e-09 0) (1.16741 -2.42352e-08 0) (1.1662 -4.56656e-08 0) (1.14281 -6.11786e-08 0) (0.934999 -4.39162e-08 0) (0.181315 2.65856e-11 0)
0.114         (0.180384 3.8653e-10 0) (0.75347 2.50117e-08 0) (1.11029 5.45726e-08 0) (1.1649 4.31105e-08 0) (1.16862 2.07646e-08 0) (1.16875 -1.9296e-09 0) (1.16871 -2.3996e-08 0) (1.16741 -4.51603e-08 0) (1.14317 -6.03012e-08 0) (0.932727 -4.29551e-08 0) (0.180384 3.0232e-11 0)
0.1155        (0.179472 3.74621e-10 0) (0.750783 2.43965e-08 0) (1.10989 5.36643e-08 0) (1.16598 4.25832e-08 0) (1.1699 2.05189e-08 0) (1.17004 -1.93466e-09 0) (1.17 -2.37609e-08 0) (1.16862 -4.46625e-08 0) (1.14351 -5.94375e-08 0) (0.930474 -4.20216e-08 0) (0.179473 3.25652e-11 0)
0.117         (0.17858 3.91857e-10 0) (0.748137 2.38795e-08 0) (1.10947 5.28872e-08 0) (1.16704 4.22038e-08 0) (1.17118 2.04262e-08 0) (1.17133 -1.80188e-09 0) (1.17129 -2.34259e-08 0) (1.16982 -4.41224e-08 0) (1.14382 -5.85948e-08 0) (0.92824 -4.11814e-08 0) (0.17858 -4.61195e-11 0)
0.1185        (0.177706 3.67012e-10 0) (0.745529 2.32986e-08 0) (1.10903 5.20042e-08 0) (1.16809 4.16732e-08 0) (1.17245 2.01664e-08 0) (1.17261 -1.82489e-09 0) (1.17257 -2.32077e-08 0) (1.171 -4.36366e-08 0) (1.14412 -5.77429e-08 0) (0.926025 -4.02707e-08 0) (0.177706 -1.3629e-11 0)
0.12          (0.176849 3.62996e-10 0) (0.742959 2.27766e-08 0) (1.10857 5.11753e-08 0) (1.16913 4.11821e-08 0) (1.17371 1.99302e-08 0) (1.17389 -1.84817e-09 0) (1.17384 -2.30224e-08 0) (1.17218 -4.3222e-08 0) (1.1444 -5.69998e-08 0) (0.923828 -3.95012e-08 0) (0.17685 -4.77184e-11 0)
0.1215        (0.17601 3.47163e-10 0) (0.740426 2.22586e-08 0) (1.1081 5.03635e-08 0) (1.17015 4.07105e-08 0) (1.17497 1.97246e-08 0) (1.17516 -1.82768e-09 0) (1.1751 -2.27791e-08 0) (1.17334 -4.27362e-08 0) (1.14465 -5.61804e-08 0) (0.92165 -3.8663e-08 0) (0.17601 -3.157e-11 0)
0.123         (0.175187 3.37276e-10 0) (0.737929 2.17564e-08 0) (1.10762 4.95471e-08 0) (1.17116 4.02099e-08 0) (1.17621 1.94734e-08 0) (1.17642 -1.86588e-09 0) (1.17636 -2.26055e-08 0) (1.1745 -4.23277e-08 0) (1.14489 -5.54426e-08 0) (0.919491 -3.79077e-08 0) (0.175187 -4.20535e-11 0)
0.1245        (0.17438 3.2589e-10 0) (0.735469 2.12742e-08 0) (1.10712 4.87648e-08 0) (1.17216 3.97467e-08 0) (1.17746 1.92667e-08 0) (1.17768 -1.855e-09 0) (1.17761 -2.23817e-08 0) (1.17564 -4.18719e-08 0) (1.14511 -5.46678e-08 0) (0.917351 -3.71335e-08 0) (0.17438 -3.53532e-11 0)
0.126         (0.173589 3.15451e-10 0) (0.733043 2.07993e-08 0) (1.10661 4.79756e-08 0) (1.17314 3.92571e-08 0) (1.17869 1.90229e-08 0) (1.17893 -1.88799e-09 0) (1.17886 -2.22052e-08 0) (1.17678 -4.14635e-08 0) (1.14532 -5.39392e-08 0) (0.915229 -3.64045e-08 0) (0.173589 -3.7168e-11 0)
0.1275        (0.172812 3.05441e-10 0) (0.730651 2.03425e-08 0) (1.10609 4.72115e-08 0) (1.17411 3.87901e-08 0) (1.17992 1.88035e-08 0) (1.18018 -1.89608e-09 0) (1.1801 -2.20056e-08 0) (1.1779 -4.10363e-08 0) (1.1455 -5.32011e-08 0) (0.913126 -3.56798e-08 0) (0.172813 -3.35097e-11 0)
0.129         (0.172051 2.95509e-10 0) (0.728293 1.98943e-08 0) (1.10555 4.64494e-08 0) (1.17507 3.83117e-08 0) (1.18114 1.85666e-08 0) (1.18142 -1.92562e-09 0) (1.18134 -2.18295e-08 0) (1.17901 -4.06324e-08 0) (1.14567 -5.24877e-08 0) (0.911042 -3.49824e-08 0) (0.172051 -3.21699e-11 0)
0.1305        (0.171303 2.86046e-10 0) (0.725967 1.94602e-08 0) (1.105 4.57035e-08 0) (1.17602 3.78435e-08 0) (1.18236 1.83388e-08 0) (1.18265 -1.94755e-09 0) (1.18256 -2.1648e-08 0) (1.18012 -4.0226e-08 0) (1.14582 -5.17785e-08 0) (0.908976 -3.42983e-08 0) (0.171304 -2.92991e-11 0)
0.132         (0.170569 2.76679e-10 0) (0.723674 1.9036e-08 0) (1.10444 4.49652e-08 0) (1.17695 3.7373e-08 0) (1.18356 1.8105e-08 0) (1.18388 -1.97808e-09 0) (1.18379 -2.14768e-08 0) (1.18121 -3.98306e-08 0) (1.14595 -5.10838e-08 0) (0.906928 -3.36336e-08 0) (0.17057 -2.68656e-11 0)
0.1335        (0.169849 2.67618e-10 0) (0.721412 1.86233e-08 0) (1.10387 4.4239e-08 0) (1.17787 3.69071e-08 0) (1.18477 1.78737e-08 0) (1.1851 -2.00825e-09 0) (1.185 -2.13072e-08 0) (1.1823 -3.94386e-08 0) (1.14607 -5.03978e-08 0) (0.904899 -3.29843e-08 0) (0.169849 -2.40292e-11 0)
0.135         (0.169141 2.58752e-10 0) (0.719181 1.82206e-08 0) (1.10329 4.35222e-08 0) (1.17877 3.64425e-08 0) (1.18596 1.76411e-08 0) (1.18632 -2.04185e-09 0) (1.18621 -2.11427e-08 0) (1.18337 -3.90526e-08 0) (1.14618 -4.97223e-08 0) (0.902888 -3.23512e-08 0) (0.169142 -2.12234e-11 0)
0.1365        (0.168447 2.5024e-10 0) (0.71698 1.78285e-08 0) (1.10269 4.28168e-08 0) (1.17967 3.59822e-08 0) (1.18715 1.74108e-08 0) (1.18754 -2.07508e-09 0) (1.18742 -2.09796e-08 0) (1.18444 -3.86696e-08 0) (1.14626 -4.90552e-08 0) (0.900895 -3.17326e-08 0) (0.168447 -1.83521e-11 0)
0.138         (0.167764 2.41868e-10 0) (0.714809 1.74455e-08 0) (1.10209 4.21202e-08 0) (1.18055 3.5523e-08 0) (1.18834 1.71792e-08 0) (1.18875 -2.11164e-09 0) (1.18862 -2.08213e-08 0) (1.1855 -3.82919e-08 0) (1.14634 -4.83977e-08 0) (0.89892 -3.11288e-08 0) (0.167764 -1.546e-11 0)
0.1395        (0.167093 2.33935e-10 0) (0.712666 1.70726e-08 0) (1.10148 4.14351e-08 0) (1.18142 3.50686e-08 0) (1.18951 1.69509e-08 0) (1.18995 -2.14658e-09 0) (1.18982 -2.0663e-08 0) (1.18654 -3.79157e-08 0) (1.14639 -4.77474e-08 0) (0.896962 -3.05383e-08 0) (0.167094 -1.268e-11 0)
0.141         (0.166434 2.26119e-10 0) (0.710553 1.6708e-08 0) (1.10086 4.07582e-08 0) (1.18227 3.46149e-08 0) (1.19068 1.6721e-08 0) (1.19115 -2.18474e-09 0) (1.19101 -2.0509e-08 0) (1.18758 -3.75443e-08 0) (1.14644 -4.71062e-08 0) (0.895023 -2.99616e-08 0) (0.166434 -9.92497e-12 0)
0.1425        (0.165786 2.18736e-10 0) (0.708467 1.63527e-08 0) (1.10024 4.0092e-08 0) (1.18312 3.41657e-08 0) (1.19185 1.6494e-08 0) (1.19234 -2.2214e-09 0) (1.19219 -2.03549e-08 0) (1.18861 -3.7174e-08 0) (1.14647 -4.64715e-08 0) (0.893101 -2.93973e-08 0) (0.165786 -7.42439e-12 0)
0.144         (0.165149 2.11644e-10 0) (0.706408 1.60057e-08 0) (1.0996 3.9435e-08 0) (1.18395 3.37189e-08 0) (1.19301 1.62676e-08 0) (1.19353 -2.25874e-09 0) (1.19337 -2.02024e-08 0) (1.18962 -3.68062e-08 0) (1.14649 -4.58441e-08 0) (0.891196 -2.88452e-08 0) (0.165149 -5.21087e-12 0)
0.1455        (0.164523 2.05312e-10 0) (0.704376 1.56687e-08 0) (1.09896 3.87912e-08 0) (1.18477 3.32803e-08 0) (1.19416 1.60492e-08 0) (1.19472 -2.28774e-09 0) (1.19454 -2.00409e-08 0) (1.19063 -3.6429e-08 0) (1.14649 -4.52119e-08 0) (0.889308 -2.82954e-08 0) (0.164523 -7.80429e-13 0)
0.147         (0.163906 2.01092e-10 0) (0.702371 1.53406e-08 0) (1.09831 3.81535e-08 0) (1.18558 3.28382e-08 0) (1.19531 1.5822e-08 0) (1.1959 -2.33007e-09 0) (1.19571 -1.98972e-08 0) (1.19163 -3.60734e-08 0) (1.14648 -4.46075e-08 0) (0.887438 -2.77763e-08 0) (0.163907 -4.56738e-12 0)
0.1485        (0.163301 1.9619e-10 0) (0.700391 1.50202e-08 0) (1.09765 3.75283e-08 0) (1.18638 3.24053e-08 0) (1.19645 1.56051e-08 0) (1.19707 -2.36054e-09 0) (1.19687 -1.97401e-08 0) (1.19262 -3.57039e-08 0) (1.14646 -4.39938e-08 0) (0.885585 -2.72539e-08 0) (0.163301 -2.75223e-12 0)
0.15          (0.162704 1.91928e-10 0) (0.698436 1.47062e-08 0) (1.09699 3.69069e-08 0) (1.18716 3.1967e-08 0) (1.19759 1.53782e-08 0) (1.19824 -2.40432e-09 0) (1.19803 -1.9599e-08 0) (1.1936 -3.53525e-08 0) (1.14643 -4.34027e-08 0) (0.883748 -2.67553e-08 0) (0.162705 -5.15342e-12 0)
0.1515        (0.162118 1.86781e-10 0) (0.696507 1.43993e-08 0) (1.09632 3.62978e-08 0) (1.18794 3.15379e-08 0) (1.19872 1.51614e-08 0) (1.19941 -2.43656e-09 0) (1.19918 -1.94453e-08 0) (1.19457 -3.49885e-08 0) (1.14639 -4.28037e-08 0) (0.881928 -2.62543e-08 0) (0.162118 -2.00025e-12 0)
0.153         (0.161541 1.81786e-10 0) (0.694601 1.40979e-08 0) (1.09565 3.56925e-08 0) (1.1887 3.11047e-08 0) (1.19984 1.49366e-08 0) (1.20057 -2.47922e-09 0) (1.20033 -1.93037e-08 0) (1.19554 -3.46383e-08 0) (1.14633 -4.22225e-08 0) (0.880125 -2.57722e-08 0) (0.161541 -1.31871e-12 0)
0.1545        (0.160973 1.76019e-10 0) (0.69272 1.3803e-08 0) (1.09497 3.50981e-08 0) (1.18945 3.06787e-08 0) (1.20096 1.47193e-08 0) (1.20173 -2.51334e-09 0) (1.20148 -1.9153e-08 0) (1.19649 -3.42791e-08 0) (1.14626 -4.16371e-08 0) (0.878338 -2.52904e-08 0) (0.160973 3.63161e-12 0)